<?xml version="1.0" encoding="UTF-8"?>

<!-- generated on 2022-06-08 02:03:14 by Eclipse SUMO GUI Version 1.12.0
<configuration xmlns:xsi="http://www.w3.org/2001/XMLSchema-instance" xsi:noNamespaceSchemaLocation="http://sumo.dlr.de/xsd/sumoConfiguration.xsd">

    <input>
        <net-file value="C:\Users\MHD\Desktop\traciTests\test.net.xml"/>
        <route-files value="C:\Users\MHD\Desktop\traciTests\test_final.rou.xml"/>
        <additional-files value="C:\Users\MHD\Desktop\traciTests\test.add.xml"/>
    </input>

    <output>
        <emission-output value="C:\Users\MHD\Desktop\traciTests\emission.out.xml"/>
        <summary-output value="C:\Users\MHD\Desktop\traciTests\results.out.xml"/>
        <vehroute-output value="C:\Users\MHD\Desktop\traciTests\vehroute.out.xml"/>
        <vehroute-output.write-unfinished value="true"/>
    </output>

    <time>
        <begin value="0"/>
        <end value="3600"/>
        <step-length value="1"/>
    </time>

    <processing>
        <step-method.ballistic value="true"/>
        <collision.action value="warn"/>
        <time-to-teleport value="60"/>
        <waiting-time-memory value="20000"/>
        <max-depart-delay value="-1"/>
        <lanechange.overtake-right value="true"/>
        <time-to-impatience value="30"/>
    </processing>

    <report>
        <verbose value="true"/>
        <duration-log.statistics value="true"/>
    </report>

    <traci_server>
        <remote-port value="54714"/>
    </traci_server>

    <gui_only>
        <tracker-interval value="1"/>
    </gui_only>

</configuration>
-->

<emission-export xmlns:xsi="http://www.w3.org/2001/XMLSchema-instance" xsi:noNamespaceSchemaLocation="http://sumo.dlr.de/xsd/emission_file.xsd">
    <timestep time="0.00"/>
    <timestep time="1.00">
        <vehicle id="v1" eclass="HBEFA3/HDV_D_EU4" CO2="13827.26" CO="17.30" HC="0.43" NOx="90.34" PMx="0.33" fuel="5.20" electricity="0.00" noise="75.64" route="cices_fann" type="TATA" waiting="0.00" lane="gneE0_0" pos="9.10" speed="13.89" angle="268.81" x="193.73" y="67.27"/>
        <vehicle id="v4485" eclass="HBEFA3/PC_D_EU3" CO2="1913.41" CO="0.80" HC="0.21" NOx="8.69" PMx="0.32" fuel="0.72" electricity="0.00" noise="64.57" route="citeKG_cices" type="Taxi" waiting="0.00" lane="-gneE2_0" pos="4.60" speed="13.89" angle="353.40" x="-102.30" y="-34.90"/>
        <vehicle id="v4856" eclass="HBEFA3/HDV_D_EU4" CO2="13827.26" CO="17.30" HC="0.43" NOx="90.34" PMx="0.33" fuel="5.20" electricity="0.00" noise="75.64" route="fann_cices" type="TATA" waiting="0.00" lane="gneE1_0" pos="9.10" speed="13.89" angle="89.55" x="-293.11" y="49.64"/>
        <vehicle id="v5103" eclass="HBEFA3/PC_D_EU3" CO2="1913.41" CO="0.80" HC="0.21" NOx="8.69" PMx="0.32" fuel="0.72" electricity="0.00" noise="64.57" route="mermoz_cices" type="Taxi" waiting="0.00" lane="gneE2_0" pos="4.60" speed="13.89" angle="173.39" x="-127.22" y="152.54"/>
    </timestep>
    <timestep time="2.00">
        <vehicle id="v1" eclass="HBEFA3/HDV_D_EU4" CO2="37587.47" CO="39.13" HC="1.01" NOx="230.02" PMx="0.75" fuel="14.14" electricity="0.00" noise="79.54" route="cices_fann" type="TATA" waiting="0.00" lane="gneE0_0" pos="23.39" speed="14.69" angle="268.81" x="179.45" y="66.98"/>
        <vehicle id="v4485" eclass="HBEFA3/PC_D_EU3" CO2="0.00" CO="0.00" HC="0.00" NOx="0.00" PMx="0.00" fuel="0.00" electricity="0.00" noise="59.90" route="citeKG_cices" type="Taxi" waiting="0.00" lane="-gneE2_0" pos="17.46" speed="11.83" angle="353.40" x="-103.78" y="-22.12"/>
        <vehicle id="v4856" eclass="HBEFA3/HDV_D_EU4" CO2="0.00" CO="0.00" HC="0.00" NOx="0.00" PMx="0.00" fuel="0.00" electricity="0.00" noise="70.49" route="fann_cices" type="TATA" waiting="0.00" lane=":gneJ23_1_1" pos="8.03" speed="12.28" angle="70.25" x="-280.33" y="52.80"/>
        <vehicle id="v5103" eclass="HBEFA3/PC_D_EU3" CO2="0.00" CO="0.00" HC="0.00" NOx="0.00" PMx="0.00" fuel="0.00" electricity="0.00" noise="58.55" route="mermoz_cices" type="Taxi" waiting="0.00" lane="gneE2_0" pos="17.03" speed="10.97" angle="173.39" x="-125.79" y="140.19"/>
    </timestep>
    <timestep time="3.00">
        <vehicle id="v1" eclass="HBEFA3/HDV_D_EU4" CO2="0.00" CO="0.00" HC="0.00" NOx="0.00" PMx="0.00" fuel="0.00" electricity="0.00" noise="74.51" route="cices_fann" type="TATA" waiting="0.00" lane="gneE0_0" pos="37.87" speed="14.27" angle="268.81" x="164.98" y="66.68"/>
        <vehicle id="v4485" eclass="HBEFA3/PC_D_EU3" CO2="0.00" CO="0.00" HC="0.00" NOx="0.00" PMx="0.00" fuel="0.00" electricity="0.00" noise="62.10" route="citeKG_cices" type="Taxi" waiting="0.00" lane="-gneE2_0" pos="29.13" speed="11.52" angle="353.40" x="-105.12" y="-10.53"/>
        <vehicle id="v4856" eclass="HBEFA3/HDV_D_EU4" CO2="20251.25" CO="23.57" HC="0.60" NOx="128.95" PMx="0.46" fuel="7.62" electricity="0.00" noise="75.91" route="fann_cices" type="TATA" waiting="0.00" lane="gneE1.30_1" pos="12.34" speed="12.56" angle="91.44" x="-267.92" y="52.50"/>
        <vehicle id="v4868" eclass="HBEFA3/PC_D_EU3" CO2="1913.41" CO="0.80" HC="0.21" NOx="8.69" PMx="0.32" fuel="0.72" electricity="0.00" noise="64.57" route="fann_cices" type="Taxi" waiting="0.00" lane="gneE1_0" pos="4.60" speed="13.89" angle="89.55" x="-297.61" y="49.61"/>
        <vehicle id="v5103" eclass="HBEFA3/PC_D_EU3" CO2="2108.45" CO="0.91" HC="0.21" NOx="12.35" PMx="0.40" fuel="0.79" electricity="0.00" noise="63.12" route="mermoz_cices" type="Taxi" waiting="0.00" lane="gneE2_0" pos="28.10" speed="11.15" angle="173.39" x="-124.52" y="129.20"/>
        <vehicle id="v87" eclass="HBEFA3/PC_D_EU3" CO2="1913.41" CO="0.80" HC="0.21" NOx="8.69" PMx="0.32" fuel="0.72" electricity="0.00" noise="64.57" route="cices_fann" type="Taxi" waiting="0.00" lane="gneE0_0" pos="4.60" speed="13.89" angle="268.81" x="198.23" y="67.36"/>
    </timestep>
    <timestep time="4.00">
        <vehicle id="v1" eclass="HBEFA3/HDV_D_EU4" CO2="0.00" CO="0.00" HC="0.00" NOx="0.00" PMx="0.00" fuel="0.00" electricity="0.00" noise="75.74" route="cices_fann" type="TATA" waiting="0.00" lane="gneE0_0" pos="52.13" speed="14.24" angle="268.81" x="150.72" y="66.38"/>
        <vehicle id="v4485" eclass="HBEFA3/PC_D_EU3" CO2="0.00" CO="0.00" HC="0.00" NOx="0.00" PMx="0.00" fuel="0.00" electricity="0.00" noise="60.90" route="citeKG_cices" type="Taxi" waiting="0.00" lane="-gneE2_0" pos="40.34" speed="10.89" angle="353.40" x="-106.41" y="0.61"/>
        <vehicle id="v4488" eclass="HBEFA3/PC" CO2="2365.96" CO="44.74" HC="6.39" NOx="0.00" PMx="0.25" fuel="1.04" electricity="0.00" noise="64.57" route="citeKG_cices" type="Particulier" waiting="0.00" lane="-gneE2_0" pos="4.60" speed="13.89" angle="353.40" x="-102.30" y="-34.90"/>
        <vehicle id="v4856" eclass="HBEFA3/HDV_D_EU4" CO2="0.00" CO="0.00" HC="0.00" NOx="0.00" PMx="0.00" fuel="0.00" electricity="0.00" noise="73.94" route="fann_cices" type="TATA" waiting="0.00" lane="gneE1.30_1" pos="24.81" speed="12.37" angle="91.44" x="-255.46" y="52.19"/>
        <vehicle id="v4868" eclass="HBEFA3/PC_D_EU3" CO2="0.00" CO="0.00" HC="0.00" NOx="0.00" PMx="0.00" fuel="0.00" electricity="0.00" noise="59.28" route="fann_cices" type="Taxi" waiting="0.00" lane=":gneJ23_1_1" pos="3.12" speed="11.45" angle="76.98" x="-284.97" y="50.70"/>
        <vehicle id="v504" eclass="HBEFA3/LDV_G_EU1" CO2="2792.88" CO="41.69" HC="2.36" NOx="9.35" PMx="0.00" fuel="1.20" electricity="0.00" noise="64.54" route="cices_fann" type="CarRapide" waiting="0.00" lane="gneE0_0" pos="7.10" speed="13.86" angle="268.81" x="195.73" y="67.31"/>
        <vehicle id="v5103" eclass="HBEFA3/PC_D_EU3" CO2="0.00" CO="0.00" HC="0.00" NOx="0.00" PMx="0.00" fuel="0.00" electricity="0.00" noise="60.36" route="mermoz_cices" type="Taxi" waiting="0.00" lane="gneE2_0" pos="38.90" speed="10.45" angle="173.39" x="-123.27" y="118.47"/>
        <vehicle id="v5122" eclass="HBEFA3/PC" CO2="2365.96" CO="44.74" HC="6.39" NOx="0.00" PMx="0.25" fuel="1.04" electricity="0.00" noise="64.57" route="mermoz_cices" type="Particulier" waiting="0.00" lane="gneE2_0" pos="4.60" speed="13.89" angle="173.39" x="-127.22" y="152.54"/>
        <vehicle id="v87" eclass="HBEFA3/PC_D_EU3" CO2="0.00" CO="0.00" HC="0.00" NOx="0.00" PMx="0.00" fuel="0.00" electricity="0.00" noise="62.15" route="cices_fann" type="Taxi" waiting="0.00" lane="gneE0_1" pos="18.03" speed="12.97" angle="268.81" x="184.87" y="63.89"/>
    </timestep>
    <timestep time="5.00">
        <vehicle id="v1" eclass="HBEFA3/HDV_D_EU4" CO2="14830.50" CO="18.14" HC="0.46" NOx="96.05" PMx="0.34" fuel="5.58" electricity="0.00" noise="76.00" route="cices_fann" type="TATA" waiting="0.00" lane="gneE0_0" pos="66.38" speed="14.27" angle="268.81" x="136.48" y="66.09"/>
        <vehicle id="v4485" eclass="HBEFA3/PC_D_EU3" CO2="0.00" CO="0.00" HC="0.00" NOx="0.00" PMx="0.00" fuel="0.00" electricity="0.00" noise="61.87" route="citeKG_cices" type="Taxi" waiting="0.00" lane="-gneE2_0" pos="51.15" speed="10.73" angle="353.40" x="-107.65" y="11.35"/>
        <vehicle id="v4488" eclass="HBEFA3/PC" CO2="5989.57" CO="187.18" HC="11.35" NOx="0.00" PMx="0.92" fuel="2.62" electricity="0.00" noise="67.71" route="citeKG_cices" type="Particulier" waiting="0.00" lane="-gneE2_0" pos="18.95" speed="14.82" angle="353.40" x="-103.95" y="-20.64"/>
        <vehicle id="v4856" eclass="HBEFA3/HDV_D_EU4" CO2="20989.20" CO="24.23" HC="0.61" NOx="133.24" PMx="0.47" fuel="7.90" electricity="0.00" noise="76.09" route="fann_cices" type="TATA" waiting="0.00" lane="gneE1.30_1" pos="37.33" speed="12.68" angle="91.44" x="-242.94" y="51.87"/>
        <vehicle id="v4868" eclass="HBEFA3/PC_D_EU3" CO2="1858.38" CO="0.88" HC="0.20" NOx="9.48" PMx="0.33" fuel="0.70" electricity="0.00" noise="63.00" route="fann_cices" type="Taxi" waiting="0.00" lane="gneE1.30_1" pos="6.48" speed="11.50" angle="91.44" x="-273.77" y="52.65"/>
        <vehicle id="v504" eclass="HBEFA3/LDV_G_EU1" CO2="0.00" CO="0.00" HC="0.00" NOx="0.00" PMx="0.00" fuel="0.00" electricity="0.00" noise="63.80" route="cices_fann" type="CarRapide" waiting="0.00" lane="gneE0_0" pos="20.83" speed="13.60" angle="268.81" x="182.01" y="67.03"/>
        <vehicle id="v5103" eclass="HBEFA3/PC_D_EU3" CO2="2497.80" CO="0.95" HC="0.24" NOx="16.67" PMx="0.50" fuel="0.94" electricity="0.00" noise="63.52" route="mermoz_cices" type="Taxi" waiting="0.00" lane="gneE2_0" pos="49.54" speed="10.84" angle="173.39" x="-122.05" y="107.89"/>
        <vehicle id="v5122" eclass="HBEFA3/PC" CO2="0.00" CO="0.00" HC="0.00" NOx="0.00" PMx="0.00" fuel="0.00" electricity="0.00" noise="59.87" route="mermoz_cices" type="Particulier" waiting="0.00" lane="gneE2_0" pos="17.45" speed="11.81" angle="173.39" x="-125.74" y="139.77"/>
        <vehicle id="v87" eclass="HBEFA3/PC_D_EU3" CO2="0.00" CO="0.00" HC="0.00" NOx="0.00" PMx="0.00" fuel="0.00" electricity="0.00" noise="63.16" route="cices_fann" type="Taxi" waiting="0.00" lane="gneE0_1" pos="30.88" speed="12.73" angle="268.81" x="172.02" y="63.62"/>
    </timestep>
    <timestep time="6.00">
        <vehicle id="v1" eclass="HBEFA3/HDV_D_EU4" CO2="17463.14" CO="20.55" HC="0.52" NOx="111.51" PMx="0.39" fuel="6.57" electricity="0.00" noise="76.41" route="cices_fann" type="TATA" waiting="0.00" lane="gneE0_0" pos="80.70" speed="14.38" angle="268.81" x="122.16" y="65.79"/>
        <vehicle id="v4485" eclass="HBEFA3/PC_D_EU3" CO2="0.00" CO="0.00" HC="0.00" NOx="0.00" PMx="0.00" fuel="0.00" electricity="0.00" noise="52.74" route="citeKG_cices" type="Taxi" waiting="0.00" lane="-gneE2_0" pos="60.01" speed="6.99" angle="353.40" x="-108.67" y="20.15"/>
        <vehicle id="v4488" eclass="HBEFA3/PC" CO2="0.00" CO="0.00" HC="0.00" NOx="0.00" PMx="0.00" fuel="0.00" electricity="0.00" noise="64.69" route="citeKG_cices" type="Particulier" waiting="0.00" lane="-gneE2_0" pos="33.68" speed="14.63" angle="353.40" x="-105.64" y="-6.01"/>
        <vehicle id="v4509" eclass="HBEFA3/PC_D_EU3" CO2="1913.41" CO="0.80" HC="0.21" NOx="8.69" PMx="0.32" fuel="0.72" electricity="0.00" noise="64.57" route="citeKG_fann" type="Taxi" waiting="0.00" lane="-gneE2_0" pos="4.60" speed="13.89" angle="353.40" x="-102.30" y="-34.90"/>
        <vehicle id="v4856" eclass="HBEFA3/HDV_D_EU4" CO2="16453.65" CO="19.99" HC="0.50" NOx="106.42" PMx="0.39" fuel="6.19" electricity="0.00" noise="75.41" route="fann_cices" type="TATA" waiting="0.00" lane="gneE1.30_1" pos="50.08" speed="12.80" angle="91.44" x="-230.21" y="51.55"/>
        <vehicle id="v4868" eclass="HBEFA3/PC_D_EU3" CO2="2203.35" CO="0.90" HC="0.22" NOx="12.96" PMx="0.41" fuel="0.83" electricity="0.00" noise="63.55" route="fann_cices" type="Taxi" waiting="0.00" lane="gneE1.30_1" pos="18.08" speed="11.70" angle="91.44" x="-262.18" y="52.36"/>
        <vehicle id="v4887" eclass="HBEFA3/LDV_G_EU1" CO2="2797.83" CO="41.80" HC="2.37" NOx="9.36" PMx="0.00" fuel="1.20" electricity="0.00" noise="64.57" route="fann_cices" type="CarRapide" waiting="0.00" lane="gneE1_0" pos="7.10" speed="13.89" angle="89.55" x="-295.11" y="49.63"/>
        <vehicle id="v504" eclass="HBEFA3/LDV_G_EU1" CO2="4437.94" CO="388.32" HC="7.76" NOx="14.06" PMx="0.33" fuel="1.91" electricity="0.00" noise="65.54" route="cices_fann" type="CarRapide" waiting="0.00" lane="gneE0_0" pos="34.61" speed="13.97" angle="268.81" x="168.23" y="66.74"/>
        <vehicle id="v5103" eclass="HBEFA3/PC_D_EU3" CO2="0.00" CO="0.00" HC="0.00" NOx="0.00" PMx="0.00" fuel="0.00" electricity="0.00" noise="59.41" route="mermoz_cices" type="Taxi" waiting="0.00" lane="gneE2_0" pos="59.92" speed="9.91" angle="173.39" x="-120.86" y="97.59"/>
        <vehicle id="v5122" eclass="HBEFA3/PC" CO2="3086.79" CO="79.74" HC="7.95" NOx="0.00" PMx="0.39" fuel="1.35" electricity="0.00" noise="64.04" route="mermoz_cices" type="Particulier" waiting="0.00" lane="gneE2_0" pos="29.40" speed="12.08" angle="173.39" x="-124.37" y="127.91"/>
        <vehicle id="v5280" eclass="HBEFA3/PC_D_EU3" CO2="1913.41" CO="0.80" HC="0.21" NOx="8.69" PMx="0.32" fuel="0.72" electricity="0.00" noise="64.57" route="mermoz_citeKG" type="Taxi" waiting="0.00" lane="gneE2_0" pos="4.60" speed="13.89" angle="173.39" x="-127.22" y="152.54"/>
        <vehicle id="v587" eclass="HBEFA3/PC" CO2="2365.96" CO="44.74" HC="6.39" NOx="0.00" PMx="0.25" fuel="1.04" electricity="0.00" noise="64.57" route="cices_fann" type="Particulier" waiting="0.00" lane="gneE0_0" pos="4.60" speed="13.89" angle="268.81" x="198.23" y="67.36"/>
        <vehicle id="v87" eclass="HBEFA3/PC_D_EU3" CO2="2439.97" CO="0.87" HC="0.24" NOx="14.67" PMx="0.46" fuel="0.92" electricity="0.00" noise="64.53" route="cices_fann" type="Taxi" waiting="0.00" lane="gneE0_1" pos="43.73" speed="12.96" angle="268.81" x="159.17" y="63.35"/>
    </timestep>
    <timestep time="7.00">
        <vehicle id="v1" eclass="HBEFA3/HDV_D_EU4" CO2="20844.44" CO="23.63" HC="0.60" NOx="131.33" PMx="0.45" fuel="7.84" electricity="0.00" noise="77.00" route="cices_fann" type="TATA" waiting="0.00" lane="gneE0_0" pos="95.20" speed="14.61" angle="268.81" x="107.66" y="65.49"/>
        <vehicle id="v4017" eclass="HBEFA3/HDV_D_EU4" CO2="13827.26" CO="17.30" HC="0.43" NOx="90.34" PMx="0.33" fuel="5.20" electricity="0.00" noise="75.64" route="cices_fann_DDD" type="DakarDemDikk" waiting="0.00" lane="gneE0_0" pos="12.10" speed="13.89" angle="268.81" x="190.73" y="67.21"/>
        <vehicle id="v4485" eclass="HBEFA3/PC_D_EU3" CO2="0.00" CO="0.00" HC="0.00" NOx="0.00" PMx="0.00" fuel="0.00" electricity="0.00" noise="41.76" route="citeKG_cices" type="Taxi" waiting="0.00" lane="-gneE2_0" pos="64.74" speed="2.49" angle="353.40" x="-109.21" y="24.85"/>
        <vehicle id="v4488" eclass="HBEFA3/PC" CO2="0.00" CO="0.00" HC="0.00" NOx="0.00" PMx="0.00" fuel="0.00" electricity="0.00" noise="57.85" route="citeKG_cices" type="Particulier" waiting="0.00" lane="-gneE2_0" pos="46.29" speed="10.60" angle="353.40" x="-107.09" y="6.52"/>
        <vehicle id="v4509" eclass="HBEFA3/PC_D_EU3" CO2="0.00" CO="0.00" HC="0.00" NOx="0.00" PMx="0.00" fuel="0.00" electricity="0.00" noise="64.53" route="citeKG_fann" type="Taxi" waiting="0.00" lane="-gneE2_0" pos="18.48" speed="13.88" angle="353.40" x="-103.90" y="-21.11"/>
        <vehicle id="v4856" eclass="HBEFA3/HDV_D_EU4" CO2="0.00" CO="0.00" HC="0.00" NOx="0.00" PMx="0.00" fuel="0.00" electricity="0.00" noise="73.50" route="fann_cices" type="TATA" waiting="0.00" lane="gneE1.30_1" pos="62.71" speed="12.47" angle="91.44" x="-217.58" y="51.23"/>
        <vehicle id="v4868" eclass="HBEFA3/PC_D_EU3" CO2="0.00" CO="0.00" HC="0.00" NOx="0.00" PMx="0.00" fuel="0.00" electricity="0.00" noise="61.65" route="fann_cices" type="Taxi" waiting="0.00" lane="gneE1.30_1" pos="29.57" speed="11.27" angle="91.44" x="-250.70" y="52.07"/>
        <vehicle id="v4887" eclass="HBEFA3/LDV_G_EU1" CO2="0.00" CO="0.00" HC="0.00" NOx="0.00" PMx="0.00" fuel="0.00" electricity="0.00" noise="61.60" route="fann_cices" type="CarRapide" waiting="0.00" lane=":gneJ23_1_1" pos="6.26" speed="12.73" angle="67.21" x="-282.18" y="52.46"/>
        <vehicle id="v504" eclass="HBEFA3/LDV_G_EU1" CO2="0.00" CO="0.00" HC="0.00" NOx="0.00" PMx="0.00" fuel="0.00" electricity="0.00" noise="63.39" route="cices_fann" type="CarRapide" waiting="0.00" lane="gneE0_0" pos="48.36" speed="13.53" angle="268.81" x="154.49" y="66.46"/>
        <vehicle id="v5103" eclass="HBEFA3/PC_D_EU3" CO2="0.00" CO="0.00" HC="0.00" NOx="0.00" PMx="0.00" fuel="0.00" electricity="0.00" noise="49.48" route="mermoz_cices" type="Taxi" waiting="0.00" lane="gneE2_0" pos="67.57" speed="5.41" angle="173.39" x="-119.98" y="89.98"/>
        <vehicle id="v5122" eclass="HBEFA3/PC" CO2="0.00" CO="0.00" HC="0.00" NOx="0.00" PMx="0.00" fuel="0.00" electricity="0.00" noise="63.09" route="mermoz_cices" type="Particulier" waiting="0.00" lane="gneE2_0" pos="41.45" speed="12.03" angle="173.39" x="-122.98" y="115.93"/>
        <vehicle id="v5280" eclass="HBEFA3/PC_D_EU3" CO2="0.00" CO="0.00" HC="0.00" NOx="0.00" PMx="0.00" fuel="0.00" electricity="0.00" noise="61.08" route="mermoz_citeKG" type="Taxi" waiting="0.00" lane="gneE2_0" pos="17.78" speed="12.47" angle="173.39" x="-125.70" y="139.45"/>
        <vehicle id="v587" eclass="HBEFA3/PC" CO2="6431.34" CO="204.58" HC="11.96" NOx="0.00" PMx="1.00" fuel="2.82" electricity="0.00" noise="68.11" route="cices_fann" type="Particulier" waiting="0.00" lane="gneE0_1" pos="19.01" speed="14.92" angle="268.81" x="183.89" y="63.87"/>
        <vehicle id="v87" eclass="HBEFA3/PC_D_EU3" CO2="0.00" CO="0.00" HC="0.00" NOx="0.00" PMx="0.00" fuel="0.00" electricity="0.00" noise="63.48" route="cices_fann" type="Taxi" waiting="0.00" lane="gneE0_1" pos="56.62" speed="12.82" angle="268.81" x="146.28" y="63.09"/>
    </timestep>
    <timestep time="8.00">
        <vehicle id="v1" eclass="HBEFA3/HDV_D_EU4" CO2="0.00" CO="0.00" HC="0.00" NOx="0.00" PMx="0.00" fuel="0.00" electricity="0.00" noise="74.96" route="cices_fann" type="TATA" waiting="0.00" lane="gneE0_0" pos="109.68" speed="14.33" angle="268.81" x="93.20" y="65.19"/>
        <vehicle id="v4017" eclass="HBEFA3/HDV_D_EU4" CO2="26057.68" CO="28.53" HC="0.73" NOx="162.24" PMx="0.55" fuel="9.80" electricity="0.00" noise="77.61" route="cices_fann_DDD" type="DakarDemDikk" waiting="0.00" lane="gneE0_0" pos="26.20" speed="14.31" angle="268.81" x="176.64" y="66.92"/>
        <vehicle id="v4485" eclass="HBEFA3/PC_D_EU3" CO2="2576.70" CO="1.19" HC="0.21" NOx="25.30" PMx="0.69" fuel="0.97" electricity="0.00" noise="64.51" route="citeKG_cices" type="Taxi" waiting="0.00" lane=":gneJ12_0_0" pos="1.66" speed="4.06" angle="0.06" x="-109.07" y="28.08"/>
        <vehicle id="v4488" eclass="HBEFA3/PC" CO2="0.00" CO="0.00" HC="0.00" NOx="0.00" PMx="0.00" fuel="0.00" electricity="0.00" noise="51.03" route="citeKG_cices" type="Particulier" waiting="0.00" lane="-gneE2_0" pos="54.67" speed="6.16" angle="353.40" x="-108.06" y="14.85"/>
        <vehicle id="v4509" eclass="HBEFA3/PC_D_EU3" CO2="0.00" CO="0.00" HC="0.00" NOx="0.00" PMx="0.00" fuel="0.00" electricity="0.00" noise="61.82" route="citeKG_fann" type="Taxi" waiting="0.00" lane="-gneE2_0" pos="31.83" speed="12.82" angle="353.40" x="-105.43" y="-7.84"/>
        <vehicle id="v4541" eclass="HBEFA3/PC" CO2="2365.96" CO="44.74" HC="6.39" NOx="0.00" PMx="0.25" fuel="1.04" electricity="0.00" noise="64.57" route="citeKG_fann" type="Particulier" waiting="0.00" lane="-gneE2_0" pos="4.60" speed="13.89" angle="353.40" x="-102.30" y="-34.90"/>
        <vehicle id="v4856" eclass="HBEFA3/HDV_D_EU4" CO2="16226.89" CO="19.83" HC="0.50" NOx="105.20" PMx="0.39" fuel="6.10" electricity="0.00" noise="75.26" route="fann_cices" type="TATA" waiting="0.00" lane="gneE1.30_1" pos="75.25" speed="12.59" angle="91.44" x="-205.05" y="50.92"/>
        <vehicle id="v4868" eclass="HBEFA3/PC_D_EU3" CO2="3217.03" CO="0.97" HC="0.29" NOx="23.46" PMx="0.67" fuel="1.21" electricity="0.00" noise="65.01" route="fann_cices" type="Taxi" waiting="0.00" lane="gneE1.30_1" pos="41.16" speed="11.91" angle="91.44" x="-239.12" y="51.77"/>
        <vehicle id="v4887" eclass="HBEFA3/LDV_G_EU1" CO2="2712.82" CO="58.44" HC="2.47" NOx="9.14" PMx="0.00" fuel="1.17" electricity="0.00" noise="63.81" route="fann_cices" type="CarRapide" waiting="0.00" lane="gneE1.30_1" pos="10.88" speed="12.74" angle="91.44" x="-269.37" y="52.54"/>
        <vehicle id="v4900" eclass="HBEFA3/PC" CO2="2365.96" CO="44.74" HC="6.39" NOx="0.00" PMx="0.25" fuel="1.04" electricity="0.00" noise="64.57" route="fann_cices" type="Particulier" waiting="0.00" lane="gneE1_0" pos="4.60" speed="13.89" angle="89.55" x="-297.61" y="49.61"/>
        <vehicle id="v504" eclass="HBEFA3/LDV_G_EU1" CO2="3017.99" CO="97.13" HC="3.19" NOx="10.00" PMx="0.00" fuel="1.30" electricity="0.00" noise="64.50" route="cices_fann" type="CarRapide" waiting="0.00" lane="gneE0_0" pos="61.92" speed="13.59" angle="268.81" x="140.93" y="66.18"/>
        <vehicle id="v5103" eclass="HBEFA3/PC_D_EU3" CO2="4441.55" CO="1.21" HC="0.34" NOx="40.27" PMx="1.06" fuel="1.67" electricity="0.00" noise="68.09" route="mermoz_cices" type="Taxi" waiting="0.00" lane=":gneJ13_9_1" pos="2.13" speed="7.46" angle="185.30" x="-120.16" y="83.68"/>
        <vehicle id="v5122" eclass="HBEFA3/PC" CO2="0.00" CO="0.00" HC="0.00" NOx="0.00" PMx="0.00" fuel="0.00" electricity="0.00" noise="58.42" route="mermoz_cices" type="Particulier" waiting="0.00" lane="gneE2_0" pos="52.57" speed="10.22" angle="173.39" x="-121.70" y="104.88"/>
        <vehicle id="v5280" eclass="HBEFA3/PC_D_EU3" CO2="0.00" CO="0.00" HC="0.00" NOx="0.00" PMx="0.00" fuel="0.00" electricity="0.00" noise="62.75" route="mermoz_citeKG" type="Taxi" waiting="0.00" lane="gneE2_0" pos="30.12" speed="12.21" angle="173.39" x="-124.28" y="127.18"/>
        <vehicle id="v5299" eclass="HBEFA3/PC" CO2="2365.96" CO="44.74" HC="6.39" NOx="0.00" PMx="0.25" fuel="1.04" electricity="0.00" noise="64.57" route="mermoz_citeKG" type="Particulier" waiting="0.00" lane="gneE2_0" pos="4.60" speed="13.89" angle="173.39" x="-127.22" y="152.54"/>
        <vehicle id="v587" eclass="HBEFA3/PC" CO2="2634.23" CO="52.25" HC="6.52" NOx="0.00" PMx="0.29" fuel="1.15" electricity="0.00" noise="65.41" route="cices_fann" type="Particulier" waiting="0.00" lane="gneE0_1" pos="33.95" speed="14.97" angle="268.81" x="168.95" y="63.56"/>
        <vehicle id="v87" eclass="HBEFA3/PC_D_EU3" CO2="0.00" CO="0.00" HC="0.00" NOx="0.00" PMx="0.00" fuel="0.00" electricity="0.00" noise="63.68" route="cices_fann" type="Taxi" waiting="0.00" lane="gneE0_1" pos="69.43" speed="12.78" angle="268.81" x="133.48" y="62.82"/>
    </timestep>
    <timestep time="9.00">
        <vehicle id="v1" eclass="HBEFA3/HDV_D_EU4" CO2="18078.24" CO="21.10" HC="0.54" NOx="115.10" PMx="0.40" fuel="6.80" electricity="0.00" noise="76.54" route="cices_fann" type="TATA" waiting="0.00" lane="gneE0_0" pos="124.07" speed="14.47" angle="268.81" x="78.80" y="64.89"/>
        <vehicle id="v4017" eclass="HBEFA3/HDV_D_EU4" CO2="0.00" CO="0.00" HC="0.00" NOx="0.00" PMx="0.00" fuel="0.00" electricity="0.00" noise="70.23" route="cices_fann_DDD" type="DakarDemDikk" waiting="0.00" lane="gneE0_0" pos="39.54" speed="12.37" angle="268.81" x="163.31" y="66.64"/>
        <vehicle id="v4039" eclass="HBEFA3/PC_D_EU3" CO2="1913.41" CO="0.80" HC="0.21" NOx="8.69" PMx="0.32" fuel="0.72" electricity="0.00" noise="64.57" route="cices_citeKG" type="Taxi" waiting="0.00" lane="gneE0_0" pos="4.60" speed="13.89" angle="268.81" x="198.23" y="67.36"/>
        <vehicle id="v4485" eclass="HBEFA3/PC_D_EU3" CO2="4789.47" CO="1.26" HC="0.36" NOx="44.87" PMx="1.17" fuel="1.80" electricity="0.00" noise="70.09" route="citeKG_cices" type="Taxi" waiting="0.00" lane=":gneJ12_0_0" pos="7.02" speed="6.66" angle="37.03" x="-106.30" y="32.37"/>
        <vehicle id="v4488" eclass="HBEFA3/PC" CO2="0.00" CO="0.00" HC="0.00" NOx="0.00" PMx="0.00" fuel="0.00" electricity="0.00" noise="55.20" route="citeKG_cices" type="Particulier" waiting="0.00" lane="-gneE2_0" pos="60.39" speed="5.26" angle="353.40" x="-108.71" y="20.52"/>
        <vehicle id="v4509" eclass="HBEFA3/PC_D_EU3" CO2="0.00" CO="0.00" HC="0.00" NOx="0.00" PMx="0.00" fuel="0.00" electricity="0.00" noise="56.04" route="citeKG_fann" type="Taxi" waiting="0.00" lane="-gneE2_0" pos="42.82" speed="9.15" angle="353.40" x="-106.69" y="3.07"/>
        <vehicle id="v4541" eclass="HBEFA3/PC" CO2="4858.33" CO="142.65" HC="9.80" NOx="0.00" PMx="0.71" fuel="2.13" electricity="0.00" noise="66.70" route="citeKG_fann" type="Particulier" waiting="0.00" lane="-gneE2_0" pos="18.82" speed="14.54" angle="353.40" x="-103.93" y="-20.78"/>
        <vehicle id="v4856" eclass="HBEFA3/HDV_D_EU4" CO2="0.00" CO="0.00" HC="0.00" NOx="0.00" PMx="0.00" fuel="0.00" electricity="0.00" noise="74.42" route="fann_cices" type="TATA" waiting="0.00" lane="gneE1.30_1" pos="87.80" speed="12.51" angle="91.44" x="-192.51" y="50.60"/>
        <vehicle id="v4868" eclass="HBEFA3/PC_D_EU3" CO2="1785.77" CO="0.86" HC="0.20" NOx="8.44" PMx="0.31" fuel="0.67" electricity="0.00" noise="63.18" route="fann_cices" type="Taxi" waiting="0.00" lane="gneE1.30_1" pos="53.07" speed="11.91" angle="91.44" x="-227.22" y="51.47"/>
        <vehicle id="v4887" eclass="HBEFA3/LDV_G_EU1" CO2="0.00" CO="0.00" HC="0.00" NOx="0.00" PMx="0.00" fuel="0.00" electricity="0.00" noise="63.47" route="fann_cices" type="CarRapide" waiting="0.00" lane="gneE1.30_1" pos="23.58" speed="12.65" angle="91.44" x="-256.68" y="52.22"/>
        <vehicle id="v4900" eclass="HBEFA3/PC" CO2="0.00" CO="0.00" HC="0.00" NOx="0.00" PMx="0.00" fuel="0.00" electricity="0.00" noise="61.80" route="fann_cices" type="Particulier" waiting="0.00" lane=":gneJ23_1_1" pos="3.80" speed="12.82" angle="71.59" x="-284.38" y="51.13"/>
        <vehicle id="v504" eclass="HBEFA3/LDV_G_EU1" CO2="0.00" CO="0.00" HC="0.00" NOx="0.00" PMx="0.00" fuel="0.00" electricity="0.00" noise="64.16" route="cices_fann" type="CarRapide" waiting="0.00" lane="gneE0_0" pos="75.48" speed="13.52" angle="268.81" x="127.38" y="65.90"/>
        <vehicle id="v5103" eclass="HBEFA3/PC_D_EU3" CO2="5674.47" CO="1.22" HC="0.43" NOx="50.98" PMx="1.33" fuel="2.14" electricity="0.00" noise="69.71" route="mermoz_cices" type="Taxi" waiting="0.00" lane=":gneJ13_9_1" pos="10.67" speed="9.64" angle="220.50" x="-125.03" y="76.80"/>
        <vehicle id="v5122" eclass="HBEFA3/PC" CO2="0.00" CO="0.00" HC="0.00" NOx="0.00" PMx="0.00" fuel="0.00" electricity="0.00" noise="58.31" route="mermoz_cices" type="Particulier" waiting="0.00" lane="gneE2_0" pos="62.24" speed="9.11" angle="173.39" x="-120.59" y="95.28"/>
        <vehicle id="v5280" eclass="HBEFA3/PC_D_EU3" CO2="0.00" CO="0.00" HC="0.00" NOx="0.00" PMx="0.00" fuel="0.00" electricity="0.00" noise="62.33" route="mermoz_citeKG" type="Taxi" waiting="0.00" lane="gneE2_0" pos="42.17" speed="11.88" angle="173.39" x="-122.90" y="115.22"/>
        <vehicle id="v5299" eclass="HBEFA3/PC" CO2="0.00" CO="0.00" HC="0.00" NOx="0.00" PMx="0.00" fuel="0.00" electricity="0.00" noise="62.09" route="mermoz_citeKG" type="Particulier" waiting="0.00" lane="gneE2_0" pos="18.02" speed="12.95" angle="173.39" x="-125.68" y="139.21"/>
        <vehicle id="v587" eclass="HBEFA3/PC" CO2="0.00" CO="0.00" HC="0.00" NOx="0.00" PMx="0.00" fuel="0.00" electricity="0.00" noise="65.04" route="cices_fann" type="Particulier" waiting="0.00" lane="gneE0_1" pos="48.87" speed="14.87" angle="268.81" x="154.03" y="63.25"/>
        <vehicle id="v87" eclass="HBEFA3/PC_D_EU3" CO2="0.00" CO="0.00" HC="0.00" NOx="0.00" PMx="0.00" fuel="0.00" electricity="0.00" noise="62.64" route="cices_fann" type="Taxi" waiting="0.00" lane="gneE0_1" pos="82.02" speed="12.40" angle="268.81" x="120.88" y="62.56"/>
    </timestep>
    <timestep time="10.00">
        <vehicle id="v1" eclass="HBEFA3/HDV_D_EU4" CO2="0.00" CO="0.00" HC="0.00" NOx="0.00" PMx="0.00" fuel="0.00" electricity="0.00" noise="74.17" route="cices_fann" type="TATA" waiting="0.00" lane="gneE0_0" pos="138.31" speed="14.00" angle="268.94" x="64.57" y="64.62"/>
        <vehicle id="v4017" eclass="HBEFA3/HDV_D_EU4" CO2="0.00" CO="0.00" HC="0.00" NOx="0.00" PMx="0.00" fuel="0.00" electricity="0.00" noise="68.39" route="cices_fann_DDD" type="DakarDemDikk" waiting="0.00" lane="gneE0_1" pos="50.93" speed="10.42" angle="268.81" x="151.97" y="63.21"/>
        <vehicle id="v4039" eclass="HBEFA3/PC_D_EU3" CO2="0.00" CO="0.00" HC="0.00" NOx="0.00" PMx="0.00" fuel="0.00" electricity="0.00" noise="58.32" route="cices_citeKG" type="Taxi" waiting="0.00" lane="gneE0_1" pos="16.96" speed="10.82" angle="268.81" x="185.94" y="63.91"/>
        <vehicle id="v4081" eclass="HBEFA3/PC" CO2="2365.96" CO="44.74" HC="6.39" NOx="0.00" PMx="0.25" fuel="1.04" electricity="0.00" noise="64.57" route="cices_citeKG" type="Particulier" waiting="0.00" lane="gneE0_0" pos="4.60" speed="13.89" angle="268.81" x="198.23" y="67.36"/>