<?xml version="1.0" encoding="UTF-8"?>

<!-- generated on 2022-06-08 02:03:14 by Eclipse SUMO GUI Version 1.12.0
<configuration xmlns:xsi="http://www.w3.org/2001/XMLSchema-instance" xsi:noNamespaceSchemaLocation="http://sumo.dlr.de/xsd/sumoConfiguration.xsd">

    <input>
        <net-file value="C:\Users\MHD\Desktop\traciTests\test.net.xml"/>
        <route-files value="C:\Users\MHD\Desktop\traciTests\test_final.rou.xml"/>
        <additional-files value="C:\Users\MHD\Desktop\traciTests\test.add.xml"/>
    </input>

    <output>
        <emission-output value="C:\Users\MHD\Desktop\traciTests\emission.out.xml"/>
        <summary-output value="C:\Users\MHD\Desktop\traciTests\results.out.xml"/>
        <vehroute-output value="C:\Users\MHD\Desktop\traciTests\vehroute.out.xml"/>
        <vehroute-output.write-unfinished value="true"/>
    </output>

    <time>
        <begin value="0"/>
        <end value="3600"/>
        <step-length value="1"/>
    </time>

    <processing>
        <step-method.ballistic value="true"/>
        <collision.action value="warn"/>
        <time-to-teleport value="60"/>
        <waiting-time-memory value="20000"/>
        <max-depart-delay value="-1"/>
        <lanechange.overtake-right value="true"/>
        <time-to-impatience value="30"/>
    </processing>

    <report>
        <verbose value="true"/>
        <duration-log.statistics value="true"/>
    </report>

    <traci_server>
        <remote-port value="54714"/>
    </traci_server>

    <gui_only>
        <tracker-interval value="1"/>
    </gui_only>

</configuration>
-->

<routes xmlns:xsi="http://www.w3.org/2001/XMLSchema-instance" xsi:noNamespaceSchemaLocation="http://sumo.dlr.de/xsd/routes_file.xsd">
    <vehicle id="v5280" type="Taxi" depart="6.00" departSpeed="13.89" speedFactor="0.92" arrival="30.00">
        <route edges="gneE2 gneE7 gneE7.47 gneE2.120"/>
    </vehicle>

    <vehicle id="v5299" type="Particulier" depart="8.00" departSpeed="13.89" personNumber="1" speedFactor="0.95" arrival="31.00">
        <route edges="gneE2 gneE7 gneE7.47 gneE2.120"/>
    </vehicle>

    <vehicle id="v5459" type="Taxi" depart="10.00" departSpeed="13.89" speedFactor="1.13" arrival="35.00">
        <route edges="gneE2 gneE12 gneE0.329"/>
    </vehicle>

    <vehicle id="v4856" type="TATA" depart="1.00" departSpeed="13.89" personNumber="40" speedFactor="0.93" arrival="41.00">
        <route edges="gneE1 gneE1.30 gneE1.309"/>
    </vehicle>

    <vehicle id="v5012" type="Particulier" depart="13.00" departSpeed="13.89" personNumber="2" speedFactor="1.01" arrival="41.00">
        <route edges="gneE1 gneE9 gneE7.47 gneE2.120"/>
    </vehicle>

    <vehicle id="v87" type="Taxi" depart="3.00" departSpeed="13.89" speedFactor="0.94" arrival="43.00">
        <route edges="gneE0 gneE0.81 gneE0.329"/>
    </vehicle>

    <vehicle id="v4804" type="Taxi" depart="10.00" departSpeed="13.89" speedFactor="1.12" arrival="43.00">
        <route edges="-gneE2 gneE8 gneE8.45 -gneE2.115"/>
    </vehicle>

    <vehicle id="v587" type="Particulier" depart="6.00" departSpeed="13.89" personNumber="2" speedFactor="1.08" arrival="45.00">
        <route edges="gneE0 gneE0.81 gneE0.329"/>
    </vehicle>

    <vehicle id="v4868" type="Taxi" depart="3.00" departSpeed="13.89" speedFactor="0.88" arrival="47.00">
        <route edges="gneE1 gneE1.30 gneE1.309"/>
    </vehicle>

    <vehicle id="v5462" type="Particulier" depart="12.00" departSpeed="13.89" personNumber="2" speedFactor="0.93" arrival="48.00">
        <route edges="gneE2 gneE12 gneE0.329"/>
    </vehicle>

    <vehicle id="v4810" type="Particulier" depart="13.00" departSpeed="13.89" personNumber="2" speedFactor="0.99" arrival="49.00">
        <route edges="-gneE2 gneE8 gneE8.45 -gneE2.115"/>
    </vehicle>

    <vehicle id="v4900" type="Particulier" depart="8.00" departSpeed="13.89" personNumber="2" speedFactor="0.94" arrival="50.00">
        <route edges="gneE1 gneE1.30 gneE1.309"/>
    </vehicle>

    <vehicle id="v5300" type="Particulier" depart="24.00" departSpeed="13.89" personNumber="1" speedFactor="1.00" arrival="51.00">
        <route edges="gneE2 gneE7 gneE7.47 gneE2.120"/>
    </vehicle>

    <vehicle id="v5044" type="Taxi" depart="15.00" departSpeed="13.89" personNumber="1" speedFactor="0.98" arrival="53.00">
        <route edges="gneE1 gneE9 gneE7.47 gneE8 gneE8.45 -gneE2.115"/>
    </vehicle>

    <vehicle id="v4485" type="Taxi" depart="1.00" departSpeed="13.89" speedFactor="0.86" arrival="55.00">
        <route edges="-gneE2 gneE11 gneE1.309"/>
    </vehicle>

    <vehicle id="v4509" type="Taxi" depart="6.00" departSpeed="13.89" speedFactor="1.03" arrival="55.00">
        <route edges="-gneE2 gneE8 gneE8.45 gneE12 gneE0.329"/>
    </vehicle>

    <vehicle id="v5008" type="Taxi" depart="11.00" departSpeed="13.89" personNumber="2" speedFactor="1.02" arrival="55.00">
        <route edges="gneE1 gneE9 gneE7.47 gneE2.120"/>
        <stop busStop="busStop_4" duration="3.00" parking="1"/>
    </vehicle>

    <vehicle id="v5050" type="Particulier" depart="17.00" departSpeed="13.89" personNumber="1" speedFactor="0.89" arrival="56.00">
        <route edges="gneE1 gneE9 gneE7.47 gneE8 gneE8.45 -gneE2.115"/>
    </vehicle>

    <vehicle id="v589" type="Particulier" depart="17.00" departSpeed="13.89" personNumber="2" speedFactor="1.15" arrival="56.00">
        <route edges="gneE0 gneE0.81 gneE0.329"/>
    </vehicle>

    <vehicle id="v4081" type="Particulier" depart="10.00" departSpeed="13.89" personNumber="2" speedFactor="1.05" arrival="57.00">
        <route edges="gneE0 gneE10 gneE8.45 gneE7 gneE7.47 gneE2.120"/>
    </vehicle>

    <vehicle id="v5103" type="Taxi" depart="1.00" departSpeed="13.89" speedFactor="0.83" arrival="58.00">
        <route edges="gneE2 gneE7 gneE7.47 gneE11 gneE1.309"/>
    </vehicle>

    <vehicle id="v588" type="Particulier" depart="16.00" departSpeed="13.89" personNumber="2" speedFactor="1.18" arrival="58.00">
        <route edges="gneE0 gneE0.81 gneE0.329"/>
    </vehicle>

    <vehicle id="v5122" type="Particulier" depart="4.00" departSpeed="13.89" personNumber="1" speedFactor="0.87" arrival="59.00">
        <route edges="gneE2 gneE7 gneE7.47 gneE11 gneE1.309"/>
    </vehicle>

    <vehicle id="v4348" type="Particulier" depart="13.00" departSpeed="13.89" personNumber="2" speedFactor="0.94" arrival="61.00">
        <route edges="gneE0 gneE10 gneE8.45 -gneE2.115"/>
    </vehicle>

    <vehicle id="v4488" type="Particulier" depart="4.00" departSpeed="13.89" personNumber="2" speedFactor="1.09" arrival="61.00">
        <route edges="-gneE2 gneE11 gneE1.309"/>
    </vehicle>

    <vehicle id="v1" type="TATA" depart="1.00" departSpeed="13.89" personNumber="38" speedFactor="1.06" arrival="65.00">
        <route edges="gneE0 gneE0.81 gneE0.329"/>
        <stop busStop="busStop_1" duration="17.00" parking="0"/>
    </vehicle>

    <person id="person.2" type="vieux-homme@person.2" depart="17.00" arrival="67.00">
        <walk edges="gneE13 gneE13.25" speed="3.00"/>
    </person>

    <person id="person.1" type="homme-adulte@person.1" depart="17.00" arrival="67.00">
        <walk edges="gneE13 gneE13.25" speed="3.00"/>
    </person>

    <vehicle id="v4331" type="Taxi" depart="12.00" departSpeed="13.89" personNumber="1" speedFactor="0.89" arrival="67.00">
        <route edges="gneE0 gneE10 gneE8.45 -gneE2.115"/>
        <stop busStop="busStop_2" duration="5.00" parking="1"/>
    </vehicle>

    <vehicle id="v590" type="Particulier" depart="18.00" departSpeed="13.89" personNumber="2" speedFactor="1.01" arrival="67.00">
        <route edges="gneE0 gneE0.81 gneE0.329"/>
    </vehicle>

    <vehicle id="v4039" type="Taxi" depart="9.00" departSpeed="13.89" personNumber="2" speedFactor="0.83" arrival="69.00">
        <route edges="gneE0 gneE10 gneE8.45 gneE7 gneE7.47 gneE2.120"/>
    </vehicle>

    <vehicle id="v591" type="Particulier" depart="19.00" departSpeed="13.89" personNumber="2" speedFactor="1.17" arrival="69.00">
        <route edges="gneE0 gneE0.81 gneE0.329"/>
    </vehicle>

    <vehicle id="v592" type="Particulier" depart="20.00" departSpeed="13.89" personNumber="2" speedFactor="0.99" arrival="71.00">
        <route edges="gneE0 gneE0.81 gneE0.329"/>
    </vehicle>

    <vehicle id="v5301" type="Particulier" depart="46.00" departSpeed="13.89" personNumber="1" speedFactor="1.02" arrival="73.00">
        <route edges="gneE2 gneE7 gneE7.47 gneE2.120"/>
    </vehicle>

    <vehicle id="v4541" type="Particulier" depart="8.00" departSpeed="13.89" personNumber="1" speedFactor="1.05" arrival="74.00">
        <route edges="-gneE2 gneE8 gneE8.45 gneE12 gneE0.329"/>
    </vehicle>

    <vehicle id="v4887" type="CarRapide" depart="6.00" departSpeed="13.89" personNumber="24" speedFactor="0.94" arrival="76.00">
        <route edges="gneE1 gneE1.30 gneE1.309"/>
        <stop busStop="busStop_6" duration="19.00" parking="0"/>
    </vehicle>

    <vehicle id="v504" type="CarRapide" depart="4.00" departSpeed="13.86" personNumber="25" speedFactor="1.01" arrival="77.00">
        <route edges="gneE0 gneE0.81 gneE0.329"/>
        <stop busStop="busStop_1" duration="11.00" parking="0"/>
    </vehicle>

    <vehicle id="v4901" type="Particulier" depart="36.00" departSpeed="13.89" personNumber="2" speedFactor="0.94" arrival="77.00">
        <route edges="gneE1 gneE1.30 gneE1.309"/>
    </vehicle>

    <vehicle id="v593" type="Particulier" depart="21.00" departSpeed="13.89" personNumber="1" speedFactor="1.02" arrival="79.00">
        <route edges="gneE0 gneE0.81 gneE0.329"/>
    </vehicle>

    <person id="person.4" type="femme-adulte@person.4" depart="35.00" arrival="80.00">
        <walk edges="gneE13 gneE13.25" speed="3.00"/>
    </person>

    <vehicle id="v594" type="Particulier" depart="23.00" departSpeed="13.89" personNumber="2" speedFactor="0.97" arrival="80.00">
        <route edges="gneE0 gneE0.81 gneE0.329"/>
    </vehicle>

    <person id="person.5" type="femme-adulte@person.5" depart="36.00" arrival="82.00">
        <walk edges="gneE13 gneE13.25" speed="3.00"/>
    </person>

    <vehicle id="v595" type="Particulier" depart="24.00" departSpeed="13.89" personNumber="2" speedFactor="1.18" arrival="82.00">
        <route edges="gneE0 gneE0.81 gneE0.329"/>
    </vehicle>

    <vehicle id="v5123" type="Particulier" depart="26.00" departSpeed="13.89" personNumber="2" speedFactor="0.90" arrival="82.00">
        <route edges="gneE2 gneE7 gneE7.47 gneE11 gneE1.309"/>
    </vehicle>

    <vehicle id="v88" type="Taxi" depart="25.00" departSpeed="13.89" speedFactor="1.10" arrival="83.00">
        <route edges="gneE0 gneE0.81 gneE0.329"/>
    </vehicle>

    <vehicle id="v4082" type="Particulier" depart="35.00" departSpeed="13.89" personNumber="2" speedFactor="1.09" arrival="85.00">
        <route edges="gneE0 gneE10 gneE8.45 gneE7 gneE7.47 gneE2.120"/>
    </vehicle>

    <vehicle id="v596" type="Particulier" depart="27.00" departSpeed="13.89" personNumber="1" speedFactor="0.90" arrival="88.00">
        <route edges="gneE0 gneE0.81 gneE0.329"/>
    </vehicle>

    <vehicle id="v5302" type="Particulier" depart="69.00" departSpeed="13.89" personNumber="1" speedFactor="0.99" arrival="89.00">
        <route edges="gneE2 gneE7 gneE7.47 gneE2.120"/>
    </vehicle>

    <vehicle id="v597" type="Particulier" depart="29.00" departSpeed="13.89" personNumber="1" speedFactor="1.03" arrival="90.00">
        <route edges="gneE0 gneE0.81 gneE0.329"/>
    </vehicle>

    <person id="person.3" type="homme-adulte@person.3" depart="35.00" arrival="91.00">
        <walk edges="gneE13 gneE13.25" speed="3.00"/>
    </person>

    <vehicle id="v605" type="Particulier" depart="44.00" departSpeed="13.89" personNumber="1" speedFactor="1.17" arrival="91.00">
        <route edges="gneE0 gneE0.81 gneE0.329"/>
    </vehicle>

    <person id="person.7" type="homme-adulte@person.7" depart="52.00" arrival="92.00">
        <walk edges="gneE13 gneE13.25" speed="3.00"/>
    </person>

    <person id="person.12" type="jeune-femme@person.12" depart="61.00" arrival="93.00">
        <walk edges="gneE13 gneE13.25" speed="3.00"/>
    </person>

    <vehicle id="v606" type="Particulier" depart="45.00" departSpeed="13.89" personNumber="1" speedFactor="1.02" arrival="93.00">
        <route edges="gneE0 gneE0.81 gneE0.329"/>
    </vehicle>

    <vehicle id="v598" type="Particulier" depart="31.00" departSpeed="13.89" personNumber="2" speedFactor="0.96" arrival="94.00">
        <route edges="gneE0 gneE0.81 gneE0.329"/>
    </vehicle>

    <person id="person.8" type="vielle-femme@person.8" depart="55.00" arrival="95.00">
        <walk edges="gneE13 gneE13.25" speed="3.00"/>
    </person>

    <vehicle id="v599" type="Particulier" depart="32.00" departSpeed="13.89" personNumber="1" speedFactor="1.09" arrival="96.00">
        <route edges="gneE0 gneE0.81 gneE0.329"/>
    </vehicle>

    <vehicle id="v608" type="Particulier" depart="48.00" departSpeed="13.89" personNumber="1" speedFactor="1.00" arrival="97.00">
        <route edges="gneE0 gneE0.81 gneE0.329"/>
    </vehicle>

    <vehicle id="v600" type="Particulier" depart="34.00" departSpeed="13.89" personNumber="1" speedFactor="1.04" arrival="99.00">
        <route edges="gneE0 gneE0.81 gneE0.329"/>
    </vehicle>

    <vehicle id="v5124" type="Particulier" depart="49.00" departSpeed="13.89" personNumber="2" speedFactor="0.89" arrival="99.00">
        <route edges="gneE2 gneE7 gneE7.47 gneE11 gneE1.309"/>
    </vehicle>

    <vehicle id="v609" type="Particulier" depart="50.00" departSpeed="13.89" personNumber="2" speedFactor="1.14" arrival="100.00">
        <route edges="gneE0 gneE0.81 gneE0.329"/>
    </vehicle>

    <vehicle id="v5051" type="Particulier" depart="69.00" departSpeed="13.89" personNumber="2" speedFactor="1.07" arrival="100.00">
        <route edges="gneE1 gneE9 gneE7.47 gneE8 gneE8.45 -gneE2.115"/>
    </vehicle>

    <vehicle id="v601" type="Particulier" depart="37.00" departSpeed="13.89" personNumber="2" speedFactor="1.00" arrival="102.00">
        <route edges="gneE0 gneE0.81 gneE0.329"/>
    </vehicle>

    <vehicle id="v4811" type="Particulier" depart="80.00" departSpeed="13.89" personNumber="1" speedFactor="1.12" arrival="102.00">
        <route edges="-gneE2 gneE8 gneE8.45 -gneE2.115"/>
    </vehicle>

    <vehicle id="v611" type="Particulier" depart="53.00" departSpeed="13.89" personNumber="2" speedFactor="0.97" arrival="104.00">
        <route edges="gneE0 gneE0.81 gneE0.329"/>
    </vehicle>

    <vehicle id="v602" type="Particulier" depart="38.00" departSpeed="13.89" personNumber="1" speedFactor="0.90" arrival="108.00">
        <route edges="gneE0 gneE0.81 gneE0.329"/>
    </vehicle>

    <vehicle id="v4349" type="Particulier" depart="59.00" departSpeed="13.89" personNumber="1" speedFactor="1.02" arrival="108.00">
        <route edges="gneE0 gneE10 gneE8.45 -gneE2.115"/>
    </vehicle>

    <vehicle id="v4902" type="Particulier" depart="71.00" departSpeed="13.89" personNumber="1" speedFactor="1.02" arrival="108.00">
        <route edges="gneE1 gneE1.30 gneE1.309"/>
    </vehicle>

    <vehicle id="v612" type="Particulier" depart="57.00" departSpeed="13.89" personNumber="1" speedFactor="1.12" arrival="109.00">
        <route edges="gneE0 gneE0.81 gneE0.329"/>
    </vehicle>

    <vehicle id="v5005" type="DakarDemDikk" depart="10.00" departSpeed="13.89" personNumber="77" speedFactor="1.16" arrival="110.00">
        <route edges="gneE1 gneE9 gneE7.47 gneE11 gneE1.309"/>
        <stop busStop="busStop_4" duration="14.00" parking="1"/>
        <stop busStop="busStop_5" duration="15.00" parking="1"/>
    </vehicle>

    <vehicle id="v603" type="Particulier" depart="40.00" departSpeed="13.89" personNumber="1" speedFactor="0.88" arrival="112.00">
        <route edges="gneE0 gneE0.81 gneE0.329"/>
    </vehicle>

    <vehicle id="v4017" type="DakarDemDikk" depart="7.00" departSpeed="13.89" personNumber="78" speedFactor="1.03">
        <route edges="gneE0 gneE10 gneE8.45 gneE12 gneE0.329"/>
        <stop busStop="busStop_2" duration="6.00" parking="1"/>
    </vehicle>

    <vehicle id="v4542" type="Particulier" depart="26.00" departSpeed="13.89" personNumber="2" speedFactor="1.04">
        <route edges="-gneE2 gneE8 gneE8.45 gneE12 gneE0.329"/>
    </vehicle>

    <vehicle id="v89" type="Taxi" depart="41.00" departSpeed="13.89" speedFactor="0.85">
        <route edges="gneE0 gneE0.81 gneE0.329"/>
    </vehicle>

    <vehicle id="v604" type="Particulier" depart="43.00" departSpeed="13.89" personNumber="2" speedFactor="0.85">
        <route edges="gneE0 gneE0.81 gneE0.329"/>
    </vehicle>

    <vehicle id="v607" type="Particulier" depart="47.00" departSpeed="13.89" personNumber="2" speedFactor="1.10">
        <route edges="gneE0 gneE0.81 gneE0.329"/>
    </vehicle>

    <vehicle id="v610" type="Particulier" depart="52.00" departSpeed="13.89" personNumber="1" speedFactor="1.02">
        <route edges="gneE0 gneE0.81 gneE0.329"/>
    </vehicle>

    <vehicle id="v90" type="Taxi" depart="56.00" departSpeed="13.89" speedFactor="1.08">
        <route edges="gneE0 gneE0.81 gneE0.329"/>
    </vehicle>

    <vehicle id="v613" type="Particulier" depart="61.00" departSpeed="13.89" personNumber="1" speedFactor="0.99">
        <route edges="gneE0 gneE0.81 gneE0.329"/>
    </vehicle>

    <vehicle id="v4543" type="Particulier" depart="30.00" departSpeed="13.89" personNumber="2" speedFactor="0.94">
        <route edges="-gneE2 gneE8 gneE8.45 gneE12 gneE0.329"/>
    </vehicle>

    <vehicle id="v614" type="Particulier" depart="62.00" departSpeed="13.89" personNumber="1" speedFactor="0.88">
        <route edges="gneE0 gneE0.81 gneE0.329"/>
    </vehicle>

    <vehicle id="v4083" type="Particulier" depart="65.00" departSpeed="13.89" personNumber="2" speedFactor="0.91">
        <route edges="gneE0 gneE10 gneE8.45 gneE7 gneE7.47 gneE2.120"/>
    </vehicle>

    <vehicle id="v615" type="Particulier" depart="66.00" departSpeed="13.89" personNumber="1" speedFactor="0.91">
        <route edges="gneE0 gneE0.81 gneE0.329"/>
    </vehicle>

    <vehicle id="v616" type="Particulier" depart="69.00" departSpeed="13.89" personNumber="2" speedFactor="1.04">
        <route edges="gneE0 gneE0.81 gneE0.329"/>
    </vehicle>

    <vehicle id="v617" type="Particulier" depart="73.00" departSpeed="13.89" personNumber="1" speedFactor="1.02">
        <route edges="gneE0 gneE0.81 gneE0.329"/>
    </vehicle>

    <vehicle id="v618" type="Particulier" depart="76.00" departSpeed="13.89" personNumber="2" speedFactor="1.02">
        <route edges="gneE0 gneE0.81 gneE0.329"/>
    </vehicle>

    <vehicle id="v619" type="Particulier" depart="80.00" departSpeed="13.89" personNumber="1" speedFactor="0.97">
        <route edges="gneE0 gneE0.81 gneE0.329"/>
    </vehicle>

    <vehicle id="v91" type="Taxi" depart="82.00" departSpeed="13.89" speedFactor="1.06">
        <route edges="gneE0 gneE0.81 gneE0.329"/>
    </vehicle>

    <vehicle id="v620" type="Particulier" depart="92.00" departSpeed="13.89" personNumber="1" speedFactor="0.96">
        <route edges="gneE0 gneE0.81 gneE0.329"/>
    </vehicle>

    <vehicle id="v621" type="Particulier" depart="94.00" departSpeed="13.89" personNumber="1" speedFactor="0.98">
        <route edges="gneE0 gneE0.81 gneE0.329"/>
    </vehicle>

    <vehicle id="v622" type="Particulier" depart="96.00" departSpeed="13.89" personNumber="2" speedFactor="1.03">
        <route edges="gneE0 gneE0.81 gneE0.329"/>
    </vehicle>

    <vehicle id="v623" type="Particulier" depart="98.00" departSpeed="13.89" personNumber="1" speedFactor="0.98">
        <route edges="gneE0 gneE0.81 gneE0.329"/>
    </vehicle>

    <vehicle id="v624" type="Particulier" depart="99.00" departSpeed="13.89" personNumber="1" speedFactor="1.01">
        <route edges="gneE0 gneE0.81 gneE0.329"/>
    </vehicle>

    <vehicle id="v625" type="Particulier" depart="101.00" departSpeed="13.89" personNumber="1" speedFactor="1.09">
        <route edges="gneE0 gneE0.81 gneE0.329"/>
    </vehicle>

    <vehicle id="v626" type="Particulier" depart="102.00" departSpeed="13.89" personNumber="2" speedFactor="1.03">
        <route edges="gneE0 gneE0.81 gneE0.329"/>
    </vehicle>

    <vehicle id="v4544" type="Particulier" depart="43.00" departSpeed="13.89" personNumber="2" speedFactor="1.00">
        <route edges="-gneE2 gneE8 gneE8.45 gneE12 gneE0.329"/>
    </vehicle>

    <vehicle id="v2" type="TATA" depart="105.00" departSpeed="13.89" personNumber="42" speedFactor="1.02">
        <route edges="gneE0 gneE0.81 gneE0.329"/>
    </vehicle>

    <vehicle id="v627" type="Particulier" depart="107.00" departSpeed="13.89" personNumber="1" speedFactor="0.97">
        <route edges="gneE0 gneE0.81 gneE0.329"/>
    </vehicle>

    <vehicle id="v628" type="Particulier" depart="108.00" departSpeed="13.89" personNumber="1" speedFactor="1.15">
        <route edges="gneE0 gneE0.81 gneE0.329"/>
    </vehicle>

    <vehicle id="v92" type="Taxi" depart="109.00" departSpeed="13.89" speedFactor="0.98">
        <route edges="gneE0 gneE0.81 gneE0.329"/>
    </vehicle>

    <vehicle id="v4084" type="Particulier" depart="110.00" departSpeed="13.89" personNumber="1" speedFactor="1.00">
        <route edges="gneE0 gneE10 gneE8.45 gneE7 gneE7.47 gneE2.120"/>
    </vehicle>

    <vehicle id="v4545" type="Particulier" depart="57.00" departSpeed="13.89" personNumber="2" speedFactor="0.95">
        <route edges="-gneE2 gneE8 gneE8.45 gneE12 gneE0.329"/>
    </vehicle>

    <vehicle id="v5125" type="Particulier" depart="71.00" departSpeed="13.89" personNumber="2" speedFactor="1.10">
        <route edges="gneE2 gneE7 gneE7.47 gneE11 gneE1.309"/>
    </vehicle>

    <vehicle id="v4546" type="Particulier" depart="70.00" departSpeed="13.89" personNumber="1" speedFactor="1.03">
        <route edges="-gneE2 gneE8 gneE8.45 gneE12 gneE0.329"/>
    </vehicle>

    <vehicle id="v4547" type="Particulier" depart="85.00" departSpeed="13.89" personNumber="1" speedFactor="0.94">
        <route edges="-gneE2 gneE8 gneE8.45 gneE12 gneE0.329"/>
    </vehicle>

    <vehicle id="v5303" type="Particulier" depart="91.00" departSpeed="13.89" personNumber="2" speedFactor="1.12">
        <route edges="gneE2 gneE7 gneE7.47 gneE2.120"/>
    </vehicle>

    <vehicle id="v5126" type="Particulier" depart="93.00" departSpeed="13.89" personNumber="1" speedFactor="1.08">
        <route edges="gneE2 gneE7 gneE7.47 gneE11 gneE1.309"/>
    </vehicle>

    <vehicle id="v4548" type="Particulier" depart="97.00" departSpeed="13.89" personNumber="1" speedFactor="1.05">
        <route edges="-gneE2 gneE8 gneE8.45 gneE12 gneE0.329"/>
    </vehicle>

    <vehicle id="v4903" type="Particulier" depart="104.00" departSpeed="13.89" personNumber="1" speedFactor="1.14">
        <route edges="gneE1 gneE1.30 gneE1.309"/>
    </vehicle>

    <vehicle id="v4549" type="Particulier" depart="111.00" departSpeed="13.89" personNumber="2" speedFactor="1.03">
        <route edges="-gneE2 gneE8 gneE8.45 gneE12 gneE0.329"/>
    </vehicle>

    <person id="person.10" type="femme-adulte@person.10" depart="60.00">
        <walk edges="gneE13 gneE13.25" speed="3.00"/>
    </person>

    <person id="person.11" type="vieux-homme@person.11" depart="61.00">
        <walk edges="gneE13 gneE13.25" speed="3.00"/>
    </person>

    <person id="person.13" type="vieux-homme" depart="62.00">
        <walk edges="gneE13 gneE13.25" speed="1.39"/>
    </person>

    <person id="person.14" type="homme-adulte" depart="68.00">
        <walk edges="gneE13 gneE13.25" speed="1.39"/>
    </person>

    <person id="person.15" type="homme-adulte@person.15" depart="88.00">
        <walk edges="gneE13 gneE13.25"/>
    </person>

    <person id="person.16" type="jeune-homme" depart="89.00">
        <walk edges="gneE13 gneE13.25" speed="1.39"/>
    </person>

    <person id="person.6" type="homme-adulte@person.6" depart="52.00">
        <walk edges="gneE13 gneE13.25" speed="3.00"/>
    </person>

    <person id="person.9" type="jeune-femme@person.9" depart="55.00">
        <walk edges="gneE13 gneE13.25" speed="3.00"/>
    </person>

</routes>
