<?xml version="1.0" encoding="UTF-8"?>

<!-- generated on 2022-04-02 13:05:33 by Eclipse SUMO GUI Version 1.12.0
<configuration xmlns:xsi="http://www.w3.org/2001/XMLSchema-instance" xsi:noNamespaceSchemaLocation="http://sumo.dlr.de/xsd/sumoConfiguration.xsd">

    <input>
        <net-file value="C:\Users\MHD\Desktop\traciTests\test.net.xml"/>
        <route-files value="C:\Users\MHD\Desktop\traciTests\test_final.rou.xml"/>
        <additional-files value="C:\Users\MHD\Desktop\traciTests\test.add.xml"/>
    </input>

    <output>
        <emission-output value="C:\Users\MHD\Desktop\traciTests\emission.out.xml"/>
        <summary-output value="C:\Users\MHD\Desktop\traciTests\results.out.xml"/>
        <vehroute-output value="C:\Users\MHD\Desktop\traciTests\vehroute.out.xml"/>
        <vehroute-output.write-unfinished value="true"/>
    </output>

    <time>
        <begin value="0"/>
        <end value="3600"/>
        <step-length value="1"/>
    </time>

    <processing>
        <step-method.ballistic value="true"/>
        <collision.action value="warn"/>
        <time-to-teleport value="60"/>
        <waiting-time-memory value="20000"/>
        <max-depart-delay value="-1"/>
        <lanechange.overtake-right value="true"/>
        <time-to-impatience value="30"/>
    </processing>

    <report>
        <verbose value="true"/>
        <duration-log.statistics value="true"/>
    </report>

    <traci_server>
        <remote-port value="49896"/>
    </traci_server>

    <gui_only>
        <tracker-interval value="1"/>
    </gui_only>

</configuration>
-->

<routes xmlns:xsi="http://www.w3.org/2001/XMLSchema-instance" xsi:noNamespaceSchemaLocation="http://sumo.dlr.de/xsd/routes_file.xsd">
    <person id="person.1" depart="2.00" arrival="30.00">
        <walk edges="gneE13 gneE13.43" speed="1.39"/>
    </person>

    <vehicle id="v5280" type="Taxi" depart="6.00" departSpeed="13.89" speedFactor="0.92" arrival="30.00">
        <route edges="gneE2 gneE7 gneE7.47 gneE2.120"/>
    </vehicle>

    <person id="person.2" depart="2.00" arrival="31.00">
        <walk edges="gneE13 gneE13.43" speed="1.39"/>
    </person>

    <vehicle id="v5299" type="Particulier" depart="8.00" departSpeed="13.89" personNumber="1" speedFactor="0.95" arrival="31.00">
        <route edges="gneE2 gneE7 gneE7.47 gneE2.120"/>
    </vehicle>

    <person id="person.3" depart="3.00" arrival="32.00">
        <walk edges="gneE13 gneE13.43" speed="1.39"/>
    </person>

    <person id="person.4" depart="3.00" arrival="33.00">
        <walk edges="gneE13 gneE13.43" speed="1.39"/>
    </person>

    <person id="person.6" depart="5.00" arrival="34.00">
        <walk edges="gneE13 gneE13.43" speed="1.39"/>
    </person>

    <person id="person.5" depart="5.00" arrival="34.00">
        <walk edges="gneE13 gneE13.43" speed="1.39"/>
    </person>

    <vehicle id="v5459" type="Taxi" depart="10.00" departSpeed="13.89" speedFactor="1.13" arrival="35.00">
        <route edges="gneE2 gneE12 gneE0.329"/>
    </vehicle>

    <person id="person.7" depart="10.00" arrival="38.00">
        <walk edges="gneE13 gneE13.43" speed="1.39"/>
    </person>

    <vehicle id="v4856" type="TATA" depart="1.00" departSpeed="13.89" personNumber="40" speedFactor="0.93" arrival="41.00">
        <route edges="gneE1 gneE1.30 gneE1.309"/>
    </vehicle>

    <vehicle id="v5012" type="Particulier" depart="13.00" departSpeed="13.89" personNumber="2" speedFactor="1.01" arrival="41.00">
        <route edges="gneE1 gneE9 gneE7.47 gneE2.120"/>
    </vehicle>

    <vehicle id="v87" type="Taxi" depart="3.00" departSpeed="13.89" speedFactor="0.94" arrival="43.00">
        <route edges="gneE0 gneE0.81 gneE0.329"/>
    </vehicle>

    <vehicle id="v4804" type="Taxi" depart="10.00" departSpeed="13.89" speedFactor="1.12" arrival="43.00">
        <route edges="-gneE2 gneE8 gneE8.45 -gneE2.115"/>
    </vehicle>

    <person id="person.8" depart="16.00" arrival="44.00">
        <walk edges="gneE13 gneE13.43" speed="1.39"/>
    </person>

    <person id="person.9" depart="16.00" arrival="45.00">
        <walk edges="gneE13 gneE13.43" speed="1.39"/>
    </person>

    <vehicle id="v587" type="Particulier" depart="6.00" departSpeed="13.89" personNumber="2" speedFactor="1.08" arrival="45.00">
        <route edges="gneE0 gneE0.81 gneE0.329"/>
    </vehicle>

    <vehicle id="v4868" type="Taxi" depart="3.00" departSpeed="13.89" speedFactor="0.88" arrival="47.00">
        <route edges="gneE1 gneE1.30 gneE1.309"/>
    </vehicle>

    <vehicle id="v5462" type="Particulier" depart="12.00" departSpeed="13.89" personNumber="2" speedFactor="0.93" arrival="48.00">
        <route edges="gneE2 gneE12 gneE0.329"/>
    </vehicle>

    <vehicle id="v4509" type="Taxi" depart="6.00" departSpeed="13.89" speedFactor="1.03" arrival="50.00">
        <route edges="-gneE2 gneE8 gneE8.45 gneE12 gneE0.329"/>
    </vehicle>

    <vehicle id="v4900" type="Particulier" depart="8.00" departSpeed="13.89" personNumber="2" speedFactor="0.94" arrival="50.00">
        <route edges="gneE1 gneE1.30 gneE1.309"/>
    </vehicle>

    <vehicle id="v5300" type="Particulier" depart="24.00" departSpeed="13.89" personNumber="1" speedFactor="1.00" arrival="50.00">
        <route edges="gneE2 gneE7 gneE7.47 gneE2.120"/>
    </vehicle>

    <vehicle id="v5044" type="Taxi" depart="15.00" departSpeed="13.89" personNumber="1" speedFactor="0.98" arrival="51.00">
        <route edges="gneE1 gneE9 gneE7.47 gneE8 gneE8.45 -gneE2.115"/>
    </vehicle>

    <vehicle id="v4541" type="Particulier" depart="8.00" departSpeed="13.89" personNumber="1" speedFactor="1.05" arrival="52.00">
        <route edges="-gneE2 gneE8 gneE8.45 gneE12 gneE0.329"/>
    </vehicle>

    <vehicle id="v5050" type="Particulier" depart="17.00" departSpeed="13.89" personNumber="1" speedFactor="0.89" arrival="54.00">
        <route edges="gneE1 gneE9 gneE7.47 gneE8 gneE8.45 -gneE2.115"/>
    </vehicle>

    <vehicle id="v4542" type="Particulier" depart="26.00" departSpeed="13.89" personNumber="2" speedFactor="1.04" arrival="54.00">
        <route edges="-gneE2 gneE8 gneE8.45 gneE12 gneE0.329"/>
    </vehicle>

    <vehicle id="v4485" type="Taxi" depart="1.00" departSpeed="13.89" speedFactor="0.86" arrival="55.00">
        <route edges="-gneE2 gneE11 gneE1.309"/>
    </vehicle>

    <vehicle id="v5008" type="Taxi" depart="11.00" departSpeed="13.89" personNumber="2" speedFactor="1.02" arrival="55.00">
        <route edges="gneE1 gneE9 gneE7.47 gneE2.120"/>
        <stop busStop="busStop_4" duration="3.00" parking="1"/>
    </vehicle>

    <vehicle id="v4810" type="Particulier" depart="13.00" departSpeed="13.89" personNumber="2" speedFactor="0.99" arrival="56.00">
        <route edges="-gneE2 gneE8 gneE8.45 -gneE2.115"/>
    </vehicle>

    <person id="person.10" depart="28.00" arrival="57.00">
        <walk edges="gneE13 gneE13.43" speed="1.39"/>
    </person>

    <vehicle id="v5103" type="Taxi" depart="1.00" departSpeed="13.89" speedFactor="0.83" arrival="58.00">
        <route edges="gneE2 gneE7 gneE7.47 gneE11 gneE1.309"/>
    </vehicle>

    <vehicle id="v5122" type="Particulier" depart="4.00" departSpeed="13.89" personNumber="1" speedFactor="0.87" arrival="59.00">
        <route edges="gneE2 gneE7 gneE7.47 gneE11 gneE1.309"/>
    </vehicle>

    <vehicle id="v4488" type="Particulier" depart="4.00" departSpeed="13.89" personNumber="2" speedFactor="1.09" arrival="61.00">
        <route edges="-gneE2 gneE11 gneE1.309"/>
    </vehicle>

    <person id="person.11" depart="34.00" arrival="63.00">
        <walk edges="gneE13 gneE13.43" speed="1.39"/>
    </person>

    <person id="person.12" depart="34.00" arrival="64.00">
        <walk edges="gneE13 gneE13.43" speed="1.39"/>
    </person>

    <person id="person.13" depart="36.00" arrival="65.00">
        <walk edges="gneE13 gneE13.43" speed="1.39"/>
    </person>

    <vehicle id="v1" type="TATA" depart="1.00" departSpeed="13.89" personNumber="38" speedFactor="1.06" arrival="68.00">
        <route edges="gneE0 gneE0.81 gneE0.329"/>
        <stop busStop="busStop_1" duration="17.00" parking="0"/>
    </vehicle>

    <vehicle id="v5301" type="Particulier" depart="46.00" departSpeed="13.89" personNumber="1" speedFactor="1.02" arrival="70.00">
        <route edges="gneE2 gneE7 gneE7.47 gneE2.120"/>
    </vehicle>

    <vehicle id="v4081" type="Particulier" depart="10.00" departSpeed="13.89" personNumber="2" speedFactor="1.05" arrival="72.00">
        <route edges="gneE0 gneE10 gneE8.45 gneE7 gneE7.47 gneE2.120"/>
    </vehicle>

    <vehicle id="v4543" type="Particulier" depart="30.00" departSpeed="13.89" personNumber="2" speedFactor="0.94" arrival="72.00">
        <route edges="-gneE2 gneE8 gneE8.45 gneE12 gneE0.329"/>
    </vehicle>

    <vehicle id="v4887" type="CarRapide" depart="6.00" departSpeed="13.89" personNumber="24" speedFactor="0.94" arrival="76.00">
        <route edges="gneE1 gneE1.30 gneE1.309"/>
        <stop busStop="busStop_6" duration="19.00" parking="0"/>
    </vehicle>

    <vehicle id="v4901" type="Particulier" depart="36.00" departSpeed="13.89" personNumber="2" speedFactor="0.94" arrival="77.00">
        <route edges="gneE1 gneE1.30 gneE1.309"/>
    </vehicle>

    <vehicle id="v5123" type="Particulier" depart="26.00" departSpeed="13.89" personNumber="2" speedFactor="0.90" arrival="79.00">
        <route edges="gneE2 gneE7 gneE7.47 gneE11 gneE1.309"/>
    </vehicle>

    <vehicle id="v4544" type="Particulier" depart="43.00" departSpeed="13.89" personNumber="2" speedFactor="1.00" arrival="81.00">
        <route edges="-gneE2 gneE8 gneE8.45 gneE12 gneE0.329"/>
    </vehicle>

    <person id="person.14" depart="56.00" arrival="84.00">
        <walk edges="gneE13 gneE13.43" speed="1.39"/>
    </person>

    <person id="person.15" depart="56.00" arrival="85.00">
        <walk edges="gneE13 gneE13.43" speed="1.39"/>
    </person>

    <vehicle id="v4039" type="Taxi" depart="9.00" departSpeed="13.89" personNumber="2" speedFactor="0.83" arrival="87.00">
        <route edges="gneE0 gneE10 gneE8.45 gneE7 gneE7.47 gneE2.120"/>
    </vehicle>

    <vehicle id="v4348" type="Particulier" depart="13.00" departSpeed="13.89" personNumber="2" speedFactor="0.94" arrival="87.00">
        <route edges="gneE0 gneE10 gneE8.45 -gneE2.115"/>
    </vehicle>

    <vehicle id="v504" type="CarRapide" depart="4.00" departSpeed="13.86" personNumber="25" speedFactor="1.01" arrival="89.00">
        <route edges="gneE0 gneE0.81 gneE0.329"/>
        <stop busStop="busStop_1" duration="11.00" parking="0"/>
    </vehicle>

    <vehicle id="v5302" type="Particulier" depart="69.00" departSpeed="13.89" personNumber="1" speedFactor="0.99" arrival="90.00">
        <route edges="gneE2 gneE7 gneE7.47 gneE2.120"/>
    </vehicle>

    <vehicle id="v4331" type="Taxi" depart="12.00" departSpeed="13.89" personNumber="1" speedFactor="0.89" arrival="92.00">
        <route edges="gneE0 gneE10 gneE8.45 -gneE2.115"/>
        <stop busStop="busStop_2" duration="5.00" parking="1"/>
    </vehicle>

    <vehicle id="v589" type="Particulier" depart="17.00" departSpeed="13.89" personNumber="2" speedFactor="1.15" arrival="92.00">
        <route edges="gneE0 gneE0.81 gneE0.329"/>
    </vehicle>

    <vehicle id="v5005" type="DakarDemDikk" depart="10.00" departSpeed="13.89" personNumber="77" speedFactor="1.16" arrival="95.00">
        <route edges="gneE1 gneE9 gneE7.47 gneE11 gneE1.309"/>
        <stop busStop="busStop_4" duration="14.00" parking="1"/>
        <stop busStop="busStop_5" duration="15.00" parking="1"/>
    </vehicle>

    <vehicle id="v4545" type="Particulier" depart="56.00" departSpeed="13.89" personNumber="2" speedFactor="0.95" arrival="96.00">
        <route edges="-gneE2 gneE8 gneE8.45 gneE12 gneE0.329"/>
    </vehicle>

    <vehicle id="v5051" type="Particulier" depart="69.00" departSpeed="13.89" personNumber="2" speedFactor="1.07" arrival="97.00">
        <route edges="gneE1 gneE9 gneE7.47 gneE8 gneE8.45 -gneE2.115"/>
    </vehicle>

    <person id="person.16" depart="70.00" arrival="99.00">
        <walk edges="gneE13 gneE13.43" speed="1.39"/>
    </person>

    <person id="person.17" depart="70.00" arrival="99.00">
        <walk edges="gneE13 gneE13.43" speed="1.39"/>
    </person>

    <vehicle id="v590" type="Particulier" depart="18.00" departSpeed="13.89" personNumber="2" speedFactor="1.01" arrival="99.00">
        <route edges="gneE0 gneE0.81 gneE0.329"/>
    </vehicle>

    <vehicle id="v4811" type="Particulier" depart="80.00" departSpeed="13.89" personNumber="1" speedFactor="1.12" arrival="99.00">
        <route edges="-gneE2 gneE8 gneE8.45 -gneE2.115"/>
    </vehicle>

    <vehicle id="v591" type="Particulier" depart="19.00" departSpeed="13.89" personNumber="2" speedFactor="1.17" arrival="100.00">
        <route edges="gneE0 gneE0.81 gneE0.329"/>
    </vehicle>

    <vehicle id="v592" type="Particulier" depart="20.00" departSpeed="13.89" personNumber="2" speedFactor="0.99" arrival="107.00">
        <route edges="gneE0 gneE0.81 gneE0.329"/>
    </vehicle>

    <vehicle id="v4902" type="Particulier" depart="71.00" departSpeed="13.89" personNumber="1" speedFactor="1.02" arrival="108.00">
        <route edges="gneE1 gneE1.30 gneE1.309"/>
    </vehicle>

    <person id="person.18" depart="80.00" arrival="109.00">
        <walk edges="gneE13 gneE13.43" speed="1.39"/>
    </person>

    <person id="person.19" depart="80.00" arrival="109.00">
        <walk edges="gneE13 gneE13.43" speed="1.39"/>
    </person>

    <vehicle id="v5303" type="Particulier" depart="91.00" departSpeed="13.89" personNumber="2" speedFactor="1.12" arrival="110.00">
        <route edges="gneE2 gneE7 gneE7.47 gneE2.120"/>
    </vehicle>

    <vehicle id="v593" type="Particulier" depart="21.00" departSpeed="13.89" personNumber="1" speedFactor="1.02" arrival="111.00">
        <route edges="gneE0 gneE0.81 gneE0.329"/>
    </vehicle>

    <vehicle id="v5124" type="Particulier" depart="48.00" departSpeed="13.89" personNumber="2" speedFactor="0.89" arrival="113.00">
        <route edges="gneE2 gneE7 gneE7.47 gneE11 gneE1.309"/>
    </vehicle>

    <person id="person.20" depart="86.00" arrival="114.00">
        <walk edges="gneE13 gneE13.43" speed="1.39"/>
    </person>

    <vehicle id="v4546" type="Particulier" depart="70.00" departSpeed="13.89" personNumber="1" speedFactor="1.03" arrival="114.00">
        <route edges="-gneE2 gneE8 gneE8.45 gneE12 gneE0.329"/>
    </vehicle>

    <vehicle id="v594" type="Particulier" depart="23.00" departSpeed="13.89" personNumber="2" speedFactor="0.97" arrival="116.00">
        <route edges="gneE0 gneE0.81 gneE0.329"/>
    </vehicle>

    <vehicle id="v5125" type="Particulier" depart="71.00" departSpeed="13.89" personNumber="2" speedFactor="1.10" arrival="116.00">
        <route edges="gneE2 gneE7 gneE7.47 gneE11 gneE1.309"/>
    </vehicle>

    <vehicle id="v588" type="Particulier" depart="16.00" departSpeed="13.89" personNumber="2" speedFactor="1.18" arrival="117.00">
        <route edges="gneE0 gneE0.81 gneE0.329"/>
    </vehicle>

    <person id="person.21" depart="91.00" arrival="119.00">
        <walk edges="gneE13 gneE13.43" speed="1.39"/>
    </person>

    <vehicle id="v88" type="Taxi" depart="25.00" departSpeed="13.89" speedFactor="1.10" arrival="119.00">
        <route edges="gneE0 gneE0.81 gneE0.329"/>
    </vehicle>

    <vehicle id="v596" type="Particulier" depart="27.00" departSpeed="13.89" personNumber="1" speedFactor="0.90" arrival="125.00">
        <route edges="gneE0 gneE0.81 gneE0.329"/>
    </vehicle>

    <vehicle id="v597" type="Particulier" depart="29.00" departSpeed="13.89" personNumber="1" speedFactor="1.03" arrival="126.00">
        <route edges="gneE0 gneE0.81 gneE0.329"/>
    </vehicle>

    <vehicle id="v595" type="Particulier" depart="24.00" departSpeed="13.89" personNumber="2" speedFactor="1.18" arrival="128.00">
        <route edges="gneE0 gneE0.81 gneE0.329"/>
    </vehicle>

    <vehicle id="v4547" type="Particulier" depart="84.00" departSpeed="13.89" personNumber="1" speedFactor="0.94" arrival="130.00">
        <route edges="-gneE2 gneE8 gneE8.45 gneE12 gneE0.329"/>
    </vehicle>

    <vehicle id="v598" type="Particulier" depart="31.00" departSpeed="13.89" personNumber="2" speedFactor="0.96" arrival="132.00">
        <route edges="gneE0 gneE0.81 gneE0.329"/>
    </vehicle>

    <vehicle id="v600" type="Particulier" depart="34.00" departSpeed="13.89" personNumber="1" speedFactor="1.04" arrival="133.00">
        <route edges="gneE0 gneE0.81 gneE0.329"/>
    </vehicle>

    <vehicle id="v599" type="Particulier" depart="32.00" departSpeed="13.89" personNumber="1" speedFactor="1.09" arrival="135.00">
        <route edges="gneE0 gneE0.81 gneE0.329"/>
    </vehicle>

    <vehicle id="v601" type="Particulier" depart="37.00" departSpeed="13.89" personNumber="2" speedFactor="1.00" arrival="136.00">
        <route edges="gneE0 gneE0.81 gneE0.329"/>
    </vehicle>

    <vehicle id="v4903" type="Particulier" depart="104.00" departSpeed="13.89" personNumber="1" speedFactor="1.14" arrival="137.00">
        <route edges="gneE1 gneE1.30 gneE1.309"/>
    </vehicle>

    <vehicle id="v5013" type="Particulier" depart="114.00" departSpeed="13.89" personNumber="1" speedFactor="0.97" arrival="138.00">
        <route edges="gneE1 gneE9 gneE7.47 gneE2.120"/>
    </vehicle>

    <vehicle id="v611" type="Particulier" depart="77.00" departSpeed="13.89" personNumber="2" speedFactor="0.97" arrival="139.00">
        <route edges="gneE0 gneE0.81 gneE0.329"/>
    </vehicle>

    <vehicle id="v606" type="Particulier" depart="48.00" departSpeed="13.89" personNumber="1" speedFactor="1.02" arrival="140.00">
        <route edges="gneE0 gneE0.81 gneE0.329"/>
    </vehicle>

    <vehicle id="v5126" type="Particulier" depart="93.00" departSpeed="13.89" personNumber="1" speedFactor="1.08" arrival="141.00">
        <route edges="gneE2 gneE7 gneE7.47 gneE11 gneE1.309"/>
    </vehicle>

    <vehicle id="v4082" type="Particulier" depart="35.00" departSpeed="13.89" personNumber="2" speedFactor="1.09" arrival="143.00">
        <route edges="gneE0 gneE10 gneE8.45 gneE7 gneE7.47 gneE2.120"/>
    </vehicle>

    <vehicle id="v602" type="Particulier" depart="38.00" departSpeed="13.89" personNumber="1" speedFactor="0.90" arrival="143.00">
        <route edges="gneE0 gneE0.81 gneE0.329"/>
    </vehicle>

    <vehicle id="v603" type="Particulier" depart="40.00" departSpeed="13.89" personNumber="1" speedFactor="0.88" arrival="146.00">
        <route edges="gneE0 gneE0.81 gneE0.329"/>
    </vehicle>

    <vehicle id="v5304" type="Particulier" depart="114.00" departSpeed="13.89" personNumber="1" speedFactor="0.89" arrival="147.00">
        <route edges="gneE2 gneE7 gneE7.47 gneE2.120"/>
    </vehicle>

    <person id="person.22" depart="119.00" arrival="148.00">
        <walk edges="gneE13 gneE13.43" speed="1.39"/>
    </person>

    <person id="person.23" depart="119.00" arrival="148.00">
        <walk edges="gneE13 gneE13.43" speed="1.39"/>
    </person>

    <vehicle id="v607" type="Particulier" depart="50.00" departSpeed="13.89" personNumber="2" speedFactor="1.10" arrival="148.00">
        <route edges="gneE0 gneE0.81 gneE0.329"/>
    </vehicle>

    <vehicle id="v612" type="Particulier" depart="81.00" departSpeed="13.89" personNumber="1" speedFactor="1.12" arrival="149.00">
        <route edges="gneE0 gneE0.81 gneE0.329"/>
    </vehicle>

    <vehicle id="v605" type="Particulier" depart="47.00" departSpeed="13.89" personNumber="1" speedFactor="1.17" arrival="151.00">
        <route edges="gneE0 gneE0.81 gneE0.329"/>
    </vehicle>

    <vehicle id="v604" type="Particulier" depart="43.00" departSpeed="13.89" personNumber="2" speedFactor="0.85" arrival="153.00">
        <route edges="gneE0 gneE0.81 gneE0.329"/>
    </vehicle>

    <vehicle id="v4083" type="Particulier" depart="99.00" departSpeed="13.89" personNumber="2" speedFactor="0.91" arrival="153.00">
        <route edges="gneE0 gneE10 gneE8.45 gneE7 gneE7.47 gneE2.120"/>
    </vehicle>

    <vehicle id="v615" type="Particulier" depart="101.00" departSpeed="13.89" personNumber="1" speedFactor="0.91" arrival="155.00">
        <route edges="gneE0 gneE0.81 gneE0.329"/>
    </vehicle>

    <vehicle id="v4548" type="Particulier" depart="97.00" departSpeed="13.89" personNumber="1" speedFactor="1.05" arrival="157.00">
        <route edges="-gneE2 gneE8 gneE8.45 gneE12 gneE0.329"/>
    </vehicle>

    <vehicle id="v5305" type="Particulier" depart="136.00" departSpeed="13.89" personNumber="2" speedFactor="1.00" arrival="157.00">
        <route edges="gneE2 gneE7 gneE7.47 gneE2.120"/>
    </vehicle>

    <vehicle id="v89" type="Taxi" depart="41.00" departSpeed="13.89" speedFactor="0.85" arrival="159.00">
        <route edges="gneE0 gneE0.81 gneE0.329"/>
    </vehicle>

    <vehicle id="v608" type="Particulier" depart="52.00" departSpeed="13.89" personNumber="1" speedFactor="1.00" arrival="161.00">
        <route edges="gneE0 gneE0.81 gneE0.329"/>
    </vehicle>

    <vehicle id="v616" type="Particulier" depart="103.00" departSpeed="13.89" personNumber="2" speedFactor="1.04" arrival="162.00">
        <route edges="gneE0 gneE0.81 gneE0.329"/>
    </vehicle>

    <vehicle id="v4349" type="Particulier" depart="83.00" departSpeed="13.89" personNumber="1" speedFactor="1.02" arrival="163.00">
        <route edges="gneE0 gneE10 gneE8.45 -gneE2.115"/>
    </vehicle>

    <vehicle id="v609" type="Particulier" depart="56.00" departSpeed="13.89" personNumber="2" speedFactor="1.14" arrival="164.00">
        <route edges="gneE0 gneE0.81 gneE0.329"/>
    </vehicle>

    <vehicle id="v618" type="Particulier" depart="106.00" departSpeed="13.89" personNumber="2" speedFactor="1.02" arrival="165.00">
        <route edges="gneE0 gneE0.81 gneE0.329"/>
    </vehicle>

    <vehicle id="v610" type="Particulier" depart="65.00" departSpeed="13.89" personNumber="1" speedFactor="1.02" arrival="167.00">
        <route edges="gneE0 gneE0.81 gneE0.329"/>
    </vehicle>

    <vehicle id="v91" type="Taxi" depart="109.00" departSpeed="13.89" speedFactor="1.06" arrival="168.00">
        <route edges="gneE0 gneE0.81 gneE0.329"/>
    </vehicle>

    <vehicle id="v4904" type="Particulier" depart="139.00" departSpeed="13.89" personNumber="1" speedFactor="1.24" arrival="169.00">
        <route edges="gneE1 gneE1.30 gneE1.309"/>
    </vehicle>

    <vehicle id="v90" type="Taxi" depart="79.00" departSpeed="13.89" speedFactor="1.08" arrival="170.00">
        <route edges="gneE0 gneE0.81 gneE0.329"/>
    </vehicle>

    <vehicle id="v620" type="Particulier" depart="111.00" departSpeed="13.89" personNumber="1" speedFactor="0.96" arrival="171.00">
        <route edges="gneE0 gneE0.81 gneE0.329"/>
    </vehicle>

    <vehicle id="v5052" type="Particulier" depart="137.00" departSpeed="13.89" personNumber="1" speedFactor="0.84" arrival="171.00">
        <route edges="gneE1 gneE9 gneE7.47 gneE8 gneE8.45 -gneE2.115"/>
    </vehicle>

    <vehicle id="v613" type="Particulier" depart="87.00" departSpeed="13.89" personNumber="1" speedFactor="0.99" arrival="173.00">
        <route edges="gneE0 gneE0.81 gneE0.329"/>
    </vehicle>

    <vehicle id="v621" type="Particulier" depart="113.00" departSpeed="13.89" personNumber="1" speedFactor="0.98" arrival="174.00">
        <route edges="gneE0 gneE0.81 gneE0.329"/>
    </vehicle>

    <vehicle id="v614" type="Particulier" depart="92.00" departSpeed="13.89" personNumber="1" speedFactor="0.88" arrival="176.00">
        <route edges="gneE0 gneE0.81 gneE0.329"/>
    </vehicle>

    <vehicle id="v5127" type="Particulier" depart="116.00" departSpeed="13.89" personNumber="1" speedFactor="0.93" arrival="176.00">
        <route edges="gneE2 gneE7 gneE7.47 gneE11 gneE1.309"/>
    </vehicle>

    <vehicle id="v622" type="Particulier" depart="115.00" departSpeed="13.89" personNumber="2" speedFactor="1.03" arrival="178.00">
        <route edges="gneE0 gneE0.81 gneE0.329"/>
    </vehicle>

    <vehicle id="v617" type="Particulier" depart="105.00" departSpeed="13.89" personNumber="1" speedFactor="1.02" arrival="179.00">
        <route edges="gneE0 gneE0.81 gneE0.329"/>
    </vehicle>

    <vehicle id="v5128" type="Particulier" depart="138.00" departSpeed="13.89" personNumber="2" speedFactor="1.02" arrival="179.00">
        <route edges="gneE2 gneE7 gneE7.47 gneE11 gneE1.309"/>
    </vehicle>

    <vehicle id="v4812" type="Particulier" depart="158.00" departSpeed="13.89" personNumber="1" speedFactor="0.88" arrival="179.00">
        <route edges="-gneE2 gneE8 gneE8.45 -gneE2.115"/>
    </vehicle>

    <vehicle id="v623" type="Particulier" depart="117.00" departSpeed="13.89" personNumber="1" speedFactor="0.98" arrival="181.00">
        <route edges="gneE0 gneE0.81 gneE0.329"/>
    </vehicle>

    <vehicle id="v624" type="Particulier" depart="119.00" departSpeed="13.89" personNumber="1" speedFactor="1.01" arrival="182.00">
        <route edges="gneE0 gneE0.81 gneE0.329"/>
    </vehicle>

    <vehicle id="v5306" type="Particulier" depart="159.00" departSpeed="13.89" personNumber="1" speedFactor="0.98" arrival="182.00">
        <route edges="gneE2 gneE7 gneE7.47 gneE2.120"/>
    </vehicle>

    <vehicle id="v625" type="Particulier" depart="121.00" departSpeed="13.89" personNumber="1" speedFactor="1.09" arrival="184.00">
        <route edges="gneE0 gneE0.81 gneE0.329"/>
    </vehicle>

    <vehicle id="v626" type="Particulier" depart="123.00" departSpeed="13.89" personNumber="2" speedFactor="1.03" arrival="185.00">
        <route edges="gneE0 gneE0.81 gneE0.329"/>
    </vehicle>

    <vehicle id="v619" type="Particulier" depart="108.00" departSpeed="13.89" personNumber="1" speedFactor="0.97" arrival="187.00">
        <route edges="gneE0 gneE0.81 gneE0.329"/>
    </vehicle>

    <vehicle id="v628" type="Particulier" depart="129.00" departSpeed="13.89" personNumber="1" speedFactor="1.15" arrival="188.00">
        <route edges="gneE0 gneE0.81 gneE0.329"/>
    </vehicle>

    <vehicle id="v92" type="Taxi" depart="131.00" departSpeed="13.89" speedFactor="0.98" arrival="190.00">
        <route edges="gneE0 gneE0.81 gneE0.329"/>
    </vehicle>

    <vehicle id="v627" type="Particulier" depart="127.00" departSpeed="13.89" personNumber="1" speedFactor="0.97" arrival="192.00">
        <route edges="gneE0 gneE0.81 gneE0.329"/>
    </vehicle>

    <vehicle id="v630" type="Particulier" depart="143.00" departSpeed="13.89" personNumber="2" speedFactor="1.02" arrival="193.00">
        <route edges="gneE0 gneE0.81 gneE0.329"/>
    </vehicle>

    <vehicle id="v4084" type="Particulier" depart="132.00" departSpeed="13.89" personNumber="1" speedFactor="1.00" arrival="194.00">
        <route edges="gneE0 gneE10 gneE8.45 gneE7 gneE7.47 gneE2.120"/>
    </vehicle>

    <vehicle id="v4549" type="Particulier" depart="111.00" departSpeed="13.89" personNumber="2" speedFactor="1.03" arrival="196.00">
        <route edges="-gneE2 gneE8 gneE8.45 gneE12 gneE0.329"/>
    </vehicle>

    <vehicle id="v631" type="Particulier" depart="147.00" departSpeed="13.89" personNumber="1" speedFactor="0.83" arrival="199.00">
        <route edges="gneE0 gneE0.81 gneE0.329"/>
    </vehicle>

    <person id="person.24" depart="172.00" arrival="200.00">
        <walk edges="gneE13 gneE13.43" speed="1.39"/>
    </person>

    <vehicle id="v5307" type="Particulier" depart="181.00" departSpeed="13.89" personNumber="1" speedFactor="0.97" arrival="200.00">
        <route edges="gneE2 gneE7 gneE7.47 gneE2.120"/>
    </vehicle>

    <vehicle id="v629" type="Particulier" depart="140.00" departSpeed="13.89" personNumber="2" speedFactor="1.01" arrival="201.00">
        <route edges="gneE0 gneE0.81 gneE0.329"/>
    </vehicle>

    <person id="person.25" depart="174.00" arrival="202.00">
        <walk edges="gneE13 gneE13.43" speed="1.39"/>
    </person>

    <vehicle id="v632" type="Particulier" depart="148.00" departSpeed="13.89" personNumber="2" speedFactor="0.92" arrival="202.00">
        <route edges="gneE0 gneE0.81 gneE0.329"/>
    </vehicle>

    <vehicle id="v4350" type="Particulier" depart="170.00" departSpeed="13.89" personNumber="2" speedFactor="1.07" arrival="202.00">
        <route edges="gneE0 gneE10 gneE8.45 -gneE2.115"/>
    </vehicle>

    <person id="person.26" depart="174.00" arrival="204.00">
        <walk edges="gneE13 gneE13.43" speed="1.39"/>
    </person>

    <vehicle id="v635" type="Particulier" depart="160.00" departSpeed="13.89" personNumber="2" speedFactor="1.01" arrival="204.00">
        <route edges="gneE0 gneE0.81 gneE0.329"/>
    </vehicle>

    <vehicle id="v633" type="Particulier" depart="151.00" departSpeed="13.89" personNumber="1" speedFactor="1.09" arrival="205.00">
        <route edges="gneE0 gneE0.81 gneE0.329"/>
    </vehicle>

    <vehicle id="v636" type="Particulier" depart="164.00" departSpeed="13.89" personNumber="2" speedFactor="0.91" arrival="207.00">
        <route edges="gneE0 gneE0.81 gneE0.329"/>
    </vehicle>

    <vehicle id="v93" type="Taxi" depart="166.00" departSpeed="13.89" speedFactor="1.12" arrival="208.00">
        <route edges="gneE0 gneE0.81 gneE0.329"/>
    </vehicle>

    <vehicle id="v637" type="Particulier" depart="168.00" departSpeed="13.89" personNumber="2" speedFactor="1.10" arrival="210.00">
        <route edges="gneE0 gneE0.81 gneE0.329"/>
    </vehicle>

    <vehicle id="v638" type="Particulier" depart="172.00" departSpeed="13.89" personNumber="2" speedFactor="0.96" arrival="211.00">
        <route edges="gneE0 gneE0.81 gneE0.329"/>
    </vehicle>

    <vehicle id="v4905" type="Particulier" depart="173.00" departSpeed="13.89" personNumber="2" speedFactor="0.97" arrival="211.00">
        <route edges="gneE1 gneE1.30 gneE1.309"/>
    </vehicle>

    <vehicle id="v639" type="Particulier" depart="174.00" departSpeed="13.89" personNumber="1" speedFactor="0.97" arrival="213.00">
        <route edges="gneE0 gneE0.81 gneE0.329"/>
    </vehicle>
